   This run of MOLCAS is using the pymolcas driver

                             OPE
                             OPE          NMOL  CASOP  ENMOLC A   SO
                 OPE        NMOLC        AS  OP EN  MO LC     AS  OP
                OPENM       OL CA        SO  PE NM  OL CA     SOP EN
                OP EN      MO   LC       AS  OP ENMOL  CASO   PENMOL
                OP  EN     MO   LC       AS  OP EN     MO     LC ASO
               OP   E  NMOL  C  AS       OP  EN MO     LC     AS  OP
               OP  E   NMO   LC AS        OPEN  MO     LCASOP EN   M
               O  PEN   MO  LCA  SO
            OPE   NMO   L   CAS    OP
        OPENMOL  CASOP     ENMOL   CASOPE
     OPENMOLCA   SOPENMOLCASOPEN   MOLCASOPE
    OPENMOLCAS   OP           EN   MOL    CAS
    OPENMOLCAS       OP  ENM        O     LCA
    OPENMOLCAS    OPEN  MOLCASO     P  E  NMO
    OPENMOLCAS     OP               E  N  MOL
    OPENMOLCA   SO           PENM   O  L  CAS    OPEN    MO    LCAS
    OPENMOLCA   SOP           ENM   O  L  CAS   OP  EN  MOLC  AS   O
    OPENMOLCA   SOPE           NM      O  LCA   S      OP  EN MO
    OPENMOLC                AS         O  PEN   M      OL  CA  SOPE
    OPENMO        LCASOPE  NMOL        C  ASO   P      ENMOLC     AS
    OPE     NMO      LCA  SO     P     E   NM   OL  CA SO  PE N   MO
          OPENMOLCA            SOPE   NMO        LCAS  O    P  ENMO
     OPENMOLCASOPENMOLCASOPENMOLCASOPENMOLCA
        OPENMOLCASOPENMOLCASOPENMOLCASOPE
            OPENMOLCASOPENMOLCASOPENM
               OPENMOLCASOPENMOLCA        version: o822a959167d23c ?
                   OPENMOLCASO
                       OPE                tag:

 OpenMolcas is free software; you can redistribute it and/or modify it
 under the terms of the GNU Lesser General Public License version 2.1.
 OpenMolcas is distributed in the hope that it will be useful, but it
 is provided "as is" and without any express or implied warranties.
 For more details see the full text of the license in the file
 LICENSE or in <http://www.gnu.org/licenses/>.

                 Copyright (C) The OpenMolcas Authors
           For the author list and the recommended citation,
                   consult the file CONTRIBUTORS.md

           *************************************************
           * pymolcas version py2.28                       *
           *   build c4a6d18ded8cb6cad61d2372a9abd97c      *
           *   (after the EMIL interpreter by V. Veryazov) *
           *************************************************

configuration info
------------------
Host name: mgt (Linux)
C Compiler ID: GNU
C flags: -std=gnu99
Fortran Compiler ID: GNU
Fortran flags: -fno-aggressive-loop-optimizations -cpp -fdefault-integer-8 -fmax-stack-var-size=1048576
Definitions: _MOLCAS_;_I8_;_LINUX_
Parallel: OFF (GA=OFF)


   ----------------------------------------------------------------------------------------------------------
  |
  |           Project: n2
  |    Submitted from: /public/home/xzzeng/work/HQC/N2/cc-pvtz/NO/PES/entropy/0.6/results/work_dir/n2/initial
  |      Scratch area: /public/home/xzzeng/work/HQC/N2/cc-pvtz/NO/PES/entropy/0.6/results/scratch
  |   Save outputs to: /public/home/xzzeng/work/HQC/N2/cc-pvtz/NO/PES/entropy/0.6/results/work_dir/n2/initial
  |            Molcas: /public/home/xzzeng/soft/OpenMolcas/build
  |
  | Scratch area is empty
  |
  |    MOLCAS_DRIVER = /public/home/xzzeng/soft/OpenMolcas/build/pymolcas
  |    MOLCAS_NPROCS = 1
  |    MOLCAS_SOURCE = /public/home/xzzeng/soft/OpenMolcas
  | MOLCAS_STRUCTURE = 0
  |
   ----------------------------------------------------------------------------------------------------------

++ ---------   Input file   ---------

&GATEWAY
  COORD = /public/home/xzzeng/work/HQC/N2/cc-pvtz/NO/PES/entropy/0.6/n2.xyz
  BASIS = cc-pvtz
  GROUP = C1

&SEWARD
  CHOLesky

&SCF
  SPIN   = 1
  CHARGE = 0
  CHOLesky

-- ----------------------------------

--- Start Module: gateway at Tue Apr  9 00:41:12 2024 ---

()()()()()()()()()()()()()()()()()()()()()()()()()()()()()()()()()()()()()()()()()()()()()()()()()()

                                              &GATEWAY

                                   only a single process is used
                       available to each process: 12 GB of memory, 1 thread?
                                             pid: 59320
()()()()()()()()()()()()()()()()()()()()()()()()()()()()()()()()()()()()()()()()()()()()()()()()()()


++    Symmetry information:
      ---------------------

                    Character Table for C1 

                             E  
                    a        1  x, y, xy, Rz, z, xz, Ry, yz, Rx, I
--


++    Basis set information:
      ----------------------


      Basis set label: N.CC-PVTZ.........

      Electronic valence basis set:
      ------------------
      Associated Effective Charge   7.000000 au
      Associated Actual Charge      7.000000 au
      Nuclear Model: Point charge

      Shell  nPrim  nBasis  Cartesian Spherical Contaminant
         s      10       4        X                  
         p       5       3        X                  
         d       2       2                 X         
         f       1       1                 X         
--


++    Molecular structure info:
      -------------------------

                    ************************************************ 
                    **** Cartesian Coordinates / Bohr, Angstrom **** 
                    ************************************************ 

     Center  Label                x              y              z                     x              y              z
        1      N1               0.000000       0.000000       0.000000              0.000000       0.000000       0.000000
        2      N2               0.000000       0.000000       1.133836              0.000000       0.000000       0.600000
--


            Nuclear Potential Energy             43.21613889 au

--- Stop Module: gateway at Tue Apr  9 00:41:12 2024 /rc=_RC_ALL_IS_WELL_ ---
*** files: xmldump
    saved to directory /public/home/xzzeng/work/HQC/N2/cc-pvtz/NO/PES/entropy/0.6/results/work_dir/n2/initial

--- Start Module: seward at Tue Apr  9 00:41:12 2024 ---

()()()()()()()()()()()()()()()()()()()()()()()()()()()()()()()()()()()()()()()()()()()()()()()()()()

                                              &SEWARD

                                   only a single process is used
                       available to each process: 12 GB of memory, 1 thread?
                                             pid: 59323
()()()()()()()()()()()()()()()()()()()()()()()()()()()()()()()()()()()()()()()()()()()()()()()()()()

               SEWARD will generate:
                  Multipole Moment integrals up to order  2
                  Kinetic Energy integrals
                  Nuclear Attraction integrals (point charge)
                  One-Electron Hamiltonian integrals
                  Velocity integrals
                  Orbital angular momentum around ( 0.0000  0.0000  0.5669 )
                  Velocity quadrupole around ( 0.0000  0.0000  0.5669 )
                  Cholesky decomposed two-electron repulsion integrals
                   - CD Threshold:   0.10E-03

                   Integrals are discarded if absolute value <: 1.00E-40
                   Integral cutoff threshold is set to       <: 1.00E-40

            Nuclear Potential Energy             43.21613889 au


      Basis set specifications :
      Symmetry species         a  
      Basis functions           60


      Input file to MOLDEN was generated!

--- Stop Module: seward at Tue Apr  9 00:41:13 2024 /rc=_RC_ALL_IS_WELL_ ---
*** files: n2.GssOrb n2.guessorb.h5 n2.guessorb.molden xmldump
    saved to directory /public/home/xzzeng/work/HQC/N2/cc-pvtz/NO/PES/entropy/0.6/results/work_dir/n2/initial
--- Module seward spent 1 second ---

*** symbolic link created: INPORB -> n2.GssOrb
--- Start Module: scf at Tue Apr  9 00:41:13 2024 ---

()()()()()()()()()()()()()()()()()()()()()()()()()()()()()()()()()()()()()()()()()()()()()()()()()()

                                                &SCF

                                   only a single process is used
                       available to each process: 12 GB of memory, 1 thread?
                                             pid: 59326
()()()()()()()()()()()()()()()()()()()()()()()()()()()()()()()()()()()()()()()()()()()()()()()()()()

++    Input section:
      --------------

      Header of the integral files:
      
       Integrals generated by Gateway/Seward, Tue Apr  9 00:41:12 2024


      Cartesian coordinates in Angstrom:
      -----------------------------------------------------
      No.  Label        X            Y            Z        
      -----------------------------------------------------
       1   N1         0.00000000   0.00000000   0.00000000
       2   N2         0.00000000   0.00000000   0.60000000
      -----------------------------------------------------
      Nuclear repulsion energy =   43.21613889
--

++    Orbital specifications:
      -----------------------

      Symmetry species               1
                                     a
      Frozen orbitals                0
      Occupied orbitals              7
      Secondary orbitals            53
      Deleted orbitals               0
      Total number of orbitals      60
      Number of basis functions     60
--

      Molecular charge                           0.000

++    Optimization specifications:
      ----------------------------

      SCF Algorithm: LK-Cholesky
      LK screening threshold:                     4.50E-02
      Local-Exchange (LK) algorithm.
       - the density matrix is decomposed
      The actual AO density is used
      Number of density matrices in core                 5
      Maximum number of NDDO SCF iterations            400
      Maximum number of HF SCF iterations              400
      Threshold for SCF energy change             1.00E-09
      Threshold for density matrix                1.00E-04
      Threshold for Fock matrix                   1.50E-04
      Threshold for linear dependence             1.00E-09
      Threshold at which DIIS is turned on        1.50E-01
      Maximum depth in the DIIS procedure                5
      Maximum depth in the BFGS Hessian update          30
      Threshold at which QNR/C2DIIS is turned on  7.50E-02
      Threshold for Norm(delta) (QNR/C2DIIS)      1.00E-03
      All orbitals punched on: SCFORB
--

      Input vectors read from INPORB
      Orbital file label: *Guess orbitals


++ Convergence information
                                   SCF        iterations: Energy and convergence statistics

Iter     Tot. SCF        One-elec.       Two-elec.     Energy      Max Dij or  Max Fij      DNorm      TNorm      AccCon     Time
         Energy          Energy          Energy        Change      Delta Norm                                                in Sec.
   1  -105.348971516  -219.510536915    70.945426508   0.00E+00    4.74E-01*   5.06E-01*    6.20E+00   8.97E+01   None         0.
   2  -106.175443793  -229.688431871    80.296849188  -8.26E-01*   1.56E-01*   1.54E-01*    1.18E+01   9.44E+01   EDIIS        0.
   3  -106.271479877  -225.787708478    76.300089710  -9.60E-02*   6.74E-02*   6.33E-02*    1.06E+01   9.25E+01   EDIIS        0.
   4  -106.283708954  -227.178586180    77.678738336  -1.22E-02*   8.70E-03*   1.42E-02*    1.12E+01   9.32E+01   c2DIIS       0.
   5  -106.285425599  -226.796803347    77.295238858  -1.72E-03*   3.06E-03*   1.93E-03*    1.11E+01   9.30E+01   QNRc2DIIS    0.
   6  -106.285463108  -226.792126824    77.290524826  -3.75E-05*   1.49E-03*   6.01E-04*    1.11E+01   9.30E+01   QNRc2DIIS    0.
   7  -106.285467555  -226.788091098    77.286484653  -4.45E-06*   5.58E-05    3.72E-05     1.11E+01   9.30E+01   QNRc2DIIS    0.
   8  -106.285467564  -226.788782294    77.287175839  -9.41E-09*   1.52E-05    1.41E-05     1.11E+01   9.30E+01   QNRc2DIIS    0.
   9  -106.285467565  -226.788524618    77.286918163  -9.88E-10    8.59E-07    5.81E-07     1.11E+01   9.30E+01   QNRc2DIIS    0.

       Convergence after   9 Macro Iterations
--

 *****************************************************************************************************************************
 *                                                                                                                           *
 *                                             SCF/KS-DFT Program, Final results                                             *
 *                                                                                                                           *
 *                                                                                                                           *
 *                                                                                                                           *
 *                                                       Final Results                                                       *
 *                                                                                                                           *
 *****************************************************************************************************************************

::    Total SCF energy                               -106.2854675652
      One-electron energy                            -226.7885246183
      Two-electron energy                              77.2869181627
      Nuclear repulsion energy                         43.2161388904
      Kinetic energy (interpolated)                   118.2603799388
      Virial theorem                                    0.8987411305
      Total spin, S(S+1)                                0.0000000000
      Total spin, S                                     0.0000000000
      Max non-diagonal density matrix element           0.0000009833
      Max non-diagonal Fock matrix element              0.0000001668


      All orbitals with orbital energies smaller than  E(LUMO)+0.5 are printed

++    Molecular orbitals:
      -------------------

      Title: SCF orbitals

      Molecular orbitals for symmetry species 1: a  

          Orbital            1         2         3         4         5         6         7         8         9        10    
          Energy          -15.7833  -15.5230   -1.5634   -1.0064   -1.0064   -0.6454   -0.5795    0.4022    0.4022    0.4282
          Occ. No.          2.0000    2.0000    2.0000    2.0000    2.0000    2.0000    2.0000    0.0000    0.0000    0.0000

        1 N1     1s         0.6972   -0.7096   -0.1065   -0.0000   -0.0000    0.0501   -0.0020   -0.0000    0.0000   -0.0434
        2 N1     2s         0.0147    0.0074    0.6868    0.0000    0.0000    0.1062   -0.5605   -0.0000    0.0000   -0.4217
        3 N1     *s        -0.0092   -0.0150   -0.0441   -0.0000   -0.0000    0.0381    0.0260   -0.0000    0.0000   -0.1219
        4 N1     *s        -0.0072   -0.0414   -0.2412    0.0000    0.0000    0.2719    0.0469   -0.0000    0.0000  -28.6218
        5 N1     2px        0.0000   -0.0000   -0.0000    0.8347   -0.0000    0.0000    0.0000    0.0000   -0.2968   -0.0000
        6 N1     *px       -0.0000    0.0000    0.0000   -0.1560    0.0000   -0.0000   -0.0000    0.0000   -0.7419   -0.0000
        7 N1     *px       -0.0000    0.0000    0.0000   -0.2134    0.0000   -0.0000   -0.0000    0.0000   -2.2811   -0.0000
        8 N1     2py        0.0000   -0.0000   -0.0000    0.0000    0.8347    0.0000    0.0000   -0.2968   -0.0000   -0.0000
        9 N1     *py       -0.0000    0.0000    0.0000   -0.0000   -0.1560   -0.0000   -0.0000   -0.7419   -0.0000    0.0000
       10 N1     *py       -0.0000    0.0000    0.0000   -0.0000   -0.2134    0.0000   -0.0000   -2.2811   -0.0000    0.0000
       11 N1     2pz        0.0343   -0.0232    0.6157    0.0000   -0.0000   -0.9421    0.4052   -0.0000   -0.0000    0.1898
       12 N1     *pz       -0.0117    0.0108   -0.2006   -0.0000   -0.0000    0.2168   -0.0134    0.0000    0.0000   -0.2300
       13 N1     *pz       -0.0114   -0.0008   -0.2411   -0.0000    0.0000    0.2047    0.0449   -0.0000    0.0000   -7.5497
       14 N1     *d2-       0.0000    0.0000   -0.0000    0.0000    0.0000   -0.0000   -0.0000   -0.0000   -0.0000    0.0000
       15 N1     *d2-      -0.0000   -0.0000   -0.0000    0.0000    0.0000    0.0000    0.0000   -0.0000   -0.0000    0.0000
       16 N1     *d1-       0.0000    0.0000   -0.0000    0.0000    0.0469   -0.0000    0.0000   -0.0109   -0.0000   -0.0000
       17 N1     *d1-       0.0000    0.0000   -0.0000    0.0000    0.0234   -0.0000    0.0000   -0.4592   -0.0000    0.0000
       18 N1     *d0        0.0094   -0.0035    0.0209    0.0000   -0.0000   -0.0312    0.0019    0.0000   -0.0000    0.0097
       19 N1     *d0        0.0018   -0.0008   -0.0154   -0.0000   -0.0000    0.0201    0.0051   -0.0000    0.0000   -0.2022
       20 N1     *d1+       0.0000   -0.0000   -0.0000    0.0469   -0.0000   -0.0000    0.0000    0.0000   -0.0109   -0.0000
       21 N1     *d1+      -0.0000   -0.0000   -0.0000    0.0234   -0.0000   -0.0000    0.0000    0.0000   -0.4592   -0.0000
       22 N1     *d2+      -0.0000    0.0000   -0.0000    0.0000   -0.0000    0.0000    0.0000    0.0000   -0.0000    0.0000
       23 N1     *d2+      -0.0000    0.0000   -0.0000    0.0000   -0.0000    0.0000   -0.0000    0.0000   -0.0000   -0.0000
       24 N1     *f3-       0.0000    0.0000   -0.0000    0.0000    0.0000    0.0000    0.0000    0.0000    0.0000   -0.0000
       25 N1     *f2-      -0.0000    0.0000   -0.0000   -0.0000   -0.0000    0.0000    0.0000    0.0000    0.0000    0.0000
       26 N1     *f1-       0.0000    0.0000   -0.0000    0.0000    0.0068    0.0000   -0.0000   -0.0390   -0.0000    0.0000
       27 N1     *f0        0.0040   -0.0009    0.0008    0.0000    0.0000   -0.0073   -0.0003   -0.0000    0.0000   -0.0373
       28 N1     *f1+       0.0000    0.0000   -0.0000    0.0068   -0.0000    0.0000    0.0000    0.0000   -0.0390   -0.0000
       29 N1     *f2+      -0.0000    0.0000   -0.0000   -0.0000    0.0000    0.0000   -0.0000   -0.0000    0.0000   -0.0000
       30 N1     *f3+      -0.0000   -0.0000    0.0000   -0.0000    0.0000    0.0000   -0.0000   -0.0000    0.0000    0.0000
       31 N2     1s         0.6973    0.7097   -0.1064   -0.0000   -0.0000    0.0501    0.0020    0.0000   -0.0000    0.0435
       32 N2     2s         0.0149   -0.0074    0.6868   -0.0000   -0.0000    0.1062    0.5605    0.0000   -0.0000    0.4220
       33 N2     *s        -0.0092    0.0150   -0.0441   -0.0000    0.0000    0.0381   -0.0261   -0.0000   -0.0000    0.1220
       34 N2     *s        -0.0072    0.0414   -0.2410   -0.0000   -0.0000    0.2723   -0.0469    0.0000   -0.0000   28.6218
       35 N2     2px       -0.0000   -0.0000   -0.0000    0.8347   -0.0000    0.0000    0.0000   -0.0000    0.2968   -0.0000
       36 N2     *px        0.0000    0.0000    0.0000   -0.1560    0.0000   -0.0000   -0.0000   -0.0000    0.7419    0.0000
       37 N2     *px        0.0000    0.0000    0.0000   -0.2134    0.0000   -0.0000   -0.0000   -0.0000    2.2810    0.0000
       38 N2     2py       -0.0000   -0.0000   -0.0000    0.0000    0.8347   -0.0000    0.0000    0.2968    0.0000   -0.0000
       39 N2     *py        0.0000    0.0000   -0.0000   -0.0000   -0.1560    0.0000   -0.0000    0.7419    0.0000   -0.0000
       40 N2     *py        0.0000    0.0000    0.0000   -0.0000   -0.2134   -0.0000   -0.0000    2.2810    0.0000   -0.0000
       41 N2     2pz       -0.0343   -0.0232   -0.6157   -0.0000   -0.0000    0.9421    0.4052    0.0000   -0.0000    0.1896
       42 N2     *pz        0.0117    0.0108    0.2006    0.0000    0.0000   -0.2169   -0.0134   -0.0000    0.0000   -0.2298
       43 N2     *pz        0.0114   -0.0008    0.2411    0.0000    0.0000   -0.2048    0.0449   -0.0000    0.0000   -7.5485
       44 N2     *d2-      -0.0000   -0.0000   -0.0000   -0.0000   -0.0000    0.0000   -0.0000   -0.0000   -0.0000    0.0000
       45 N2     *d2-       0.0000   -0.0000    0.0000   -0.0000   -0.0000   -0.0000   -0.0000   -0.0000   -0.0000    0.0000
       46 N2     *d1-       0.0000    0.0000    0.0000   -0.0000   -0.0469   -0.0000   -0.0000   -0.0109   -0.0000    0.0000
       47 N2     *d1-       0.0000   -0.0000    0.0000   -0.0000   -0.0234   -0.0000   -0.0000   -0.4592   -0.0000    0.0000
       48 N2     *d0        0.0094    0.0035    0.0209    0.0000    0.0000   -0.0312   -0.0019   -0.0000    0.0000   -0.0097
       49 N2     *d0        0.0018    0.0008   -0.0154    0.0000    0.0000    0.0201   -0.0051    0.0000   -0.0000    0.2020
       50 N2     *d1+       0.0000   -0.0000    0.0000   -0.0469    0.0000   -0.0000   -0.0000    0.0000   -0.0109    0.0000
       51 N2     *d1+       0.0000   -0.0000    0.0000   -0.0234    0.0000   -0.0000   -0.0000    0.0000   -0.4592   -0.0000
       52 N2     *d2+       0.0000   -0.0000    0.0000   -0.0000    0.0000   -0.0000   -0.0000    0.0000   -0.0000    0.0000
       53 N2     *d2+       0.0000   -0.0000    0.0000   -0.0000    0.0000   -0.0000    0.0000    0.0000   -0.0000   -0.0000
       54 N2     *f3-      -0.0000   -0.0000    0.0000   -0.0000   -0.0000   -0.0000   -0.0000   -0.0000   -0.0000    0.0000
       55 N2     *f2-      -0.0000    0.0000   -0.0000    0.0000   -0.0000   -0.0000    0.0000   -0.0000   -0.0000   -0.0000
       56 N2     *f1-      -0.0000    0.0000    0.0000    0.0000    0.0068    0.0000   -0.0000    0.0390    0.0000   -0.0000
       57 N2     *f0       -0.0040   -0.0009   -0.0008   -0.0000    0.0000    0.0073   -0.0003   -0.0000    0.0000   -0.0373
       58 N2     *f1+      -0.0000    0.0000    0.0000    0.0068   -0.0000    0.0000    0.0000   -0.0000    0.0390    0.0000
       59 N2     *f2+      -0.0000    0.0000   -0.0000   -0.0000   -0.0000    0.0000   -0.0000    0.0000   -0.0000   -0.0000
       60 N2     *f3+       0.0000   -0.0000   -0.0000    0.0000   -0.0000   -0.0000    0.0000   -0.0000    0.0000    0.0000

          Orbital           11        12        13        14    
          Energy            0.4526    0.4526    0.5077    0.7511
          Occ. No.          0.0000    0.0000    0.0000    0.0000

        1 N1     1s        -0.0000    0.0000    0.0845    0.3746
        2 N1     2s         0.0000    0.0000    0.2986    1.7067
        3 N1     *s         0.0000    0.0000    0.2903   -0.0342
        4 N1     *s         0.0000    0.0000    0.1378   -1.5383
        5 N1     2px       -0.3417   -0.0000   -0.0000    0.0000
        6 N1     *px       -0.1770   -0.0000   -0.0000   -0.0000
        7 N1     *px        0.7722    0.0000   -0.0000    0.0000
        8 N1     2py        0.0000   -0.3417   -0.0000    0.0000
        9 N1     *py        0.0000   -0.1770   -0.0000   -0.0000
       10 N1     *py       -0.0000    0.7722   -0.0000   -0.0000
       11 N1     2pz       -0.0000   -0.0000    0.4542   -0.1851
       12 N1     *pz        0.0000    0.0000   -0.4356   -0.2881
       13 N1     *pz        0.0000    0.0000   -2.2875   -0.5178
       14 N1     *d2-      -0.0000   -0.0000    0.0000    0.0000
       15 N1     *d2-       0.0000    0.0000    0.0000   -0.0000
       16 N1     *d1-       0.0000   -0.0300   -0.0000   -0.0000
       17 N1     *d1-      -0.0000    0.0245   -0.0000   -0.0000
       18 N1     *d0        0.0000   -0.0000   -0.0036   -0.0089
       19 N1     *d0        0.0000    0.0000   -0.4494   -0.0466
       20 N1     *d1+      -0.0300   -0.0000   -0.0000   -0.0000
       21 N1     *d1+       0.0245    0.0000   -0.0000   -0.0000
       22 N1     *d2+      -0.0000    0.0000   -0.0000   -0.0000
       23 N1     *d2+       0.0000   -0.0000   -0.0000   -0.0000
       24 N1     *f3-       0.0000   -0.0000    0.0000    0.0000
       25 N1     *f2-       0.0000    0.0000    0.0000   -0.0000
       26 N1     *f1-      -0.0000    0.0180   -0.0000   -0.0000
       27 N1     *f0        0.0000    0.0000   -0.0483   -0.0176
       28 N1     *f1+       0.0180    0.0000   -0.0000    0.0000
       29 N1     *f2+       0.0000   -0.0000   -0.0000   -0.0000
       30 N1     *f3+       0.0000    0.0000    0.0000    0.0000
       31 N2     1s        -0.0000    0.0000    0.0845    0.3747
       32 N2     2s        -0.0000   -0.0000    0.2984    1.7070
       33 N2     *s        -0.0000   -0.0000    0.2903   -0.0342
       34 N2     *s        -0.0000   -0.0000    0.1266   -1.5369
       35 N2     2px       -0.3417   -0.0000    0.0000   -0.0000
       36 N2     *px       -0.1769   -0.0000    0.0000    0.0000
       37 N2     *px        0.7723    0.0000    0.0000    0.0000
       38 N2     2py        0.0000   -0.3417    0.0000   -0.0000
       39 N2     *py        0.0000   -0.1769    0.0000    0.0000
       40 N2     *py       -0.0000    0.7723    0.0000    0.0000
       41 N2     2pz       -0.0000   -0.0000   -0.4544    0.1851
       42 N2     *pz        0.0000    0.0000    0.4356    0.2879
       43 N2     *pz        0.0000    0.0000    2.2905    0.5175
       44 N2     *d2-       0.0000   -0.0000   -0.0000   -0.0000
       45 N2     *d2-      -0.0000   -0.0000   -0.0000    0.0000
       46 N2     *d1-      -0.0000    0.0300    0.0000   -0.0000
       47 N2     *d1-       0.0000   -0.0246   -0.0000   -0.0000
       48 N2     *d0        0.0000   -0.0000   -0.0036   -0.0089
       49 N2     *d0       -0.0000   -0.0000   -0.4495   -0.0465
       50 N2     *d1+       0.0300    0.0000   -0.0000   -0.0000
       51 N2     *d1+      -0.0246   -0.0000   -0.0000   -0.0000
       52 N2     *d2+      -0.0000   -0.0000    0.0000    0.0000
       53 N2     *d2+      -0.0000    0.0000   -0.0000    0.0000
       54 N2     *f3-      -0.0000    0.0000   -0.0000   -0.0000
       55 N2     *f2-       0.0000    0.0000    0.0000    0.0000
       56 N2     *f1-      -0.0000    0.0180    0.0000    0.0000
       57 N2     *f0        0.0000    0.0000    0.0483    0.0176
       58 N2     *f1+       0.0180    0.0000    0.0000    0.0000
       59 N2     *f2+       0.0000   -0.0000   -0.0000   -0.0000
       60 N2     *f3+      -0.0000   -0.0000   -0.0000   -0.0000
--


++    Molecular charges:
      ------------------

      Mulliken charges per centre and basis function type
      ---------------------------------------------------

                N1      N2    
      1s       1.9926  1.9926
      2s       1.5675  1.5676
      2px      1.4653  1.4653
      2pz      1.8449  1.8449
      2py      1.4653  1.4653
      *s      -0.0732 -0.0726
      *px     -0.5127 -0.5127
      *pz     -0.3471 -0.3471
      *py     -0.5127 -0.5127
      *d2+     0.0000  0.0000
      *d1+     0.0445  0.0445
      *d0      0.0161  0.0161
      *d1-     0.0445  0.0445
      *d2-     0.0000  0.0000
      *f3+     0.0000  0.0000
      *f2+    -0.0000 -0.0000
      *f1+     0.0029  0.0029
      *f0     -0.0011 -0.0011
      *f1-     0.0029  0.0029
      *f2-     0.0000 -0.0000
      *f3-     0.0000  0.0000
      Total    6.9996  7.0004

      N-E      0.0004 -0.0004

      Total electronic charge=   14.000000

      Total            charge=   -0.000000
--


++    Molecular properties:
      ---------------------

      Charge (e):
                      =   -0.0000
      Dipole Moment (Debye):
      Origin of the operator (Ang)=    0.0000    0.0000    0.0000
                   X=  4.7284E-13               Y=  1.7161E-12               Z=  1.6935E-05           Total=  1.6935E-05
      Quadrupole Moment (Debye*Ang):
      Origin of the operator (Ang)=    0.0000    0.0000    0.3000
                  XX= -8.0367E+00              XY=  1.2038E-15              XZ=  4.8710E-11              YY= -8.0367E+00
                  YZ=  3.7671E-11              ZZ= -1.1057E+01
      In traceless form (Debye*Ang)
                  XX=  1.5103E+00              XY=  1.8057E-15              XZ=  7.3065E-11              YY=  1.5103E+00
                  YZ=  5.6506E-11              ZZ= -3.0206E+00
--


      Input file to MOLDEN was generated!

 ###############################################################################
 ###############################################################################
 ###                                                                         ###
 ###                                                                         ###
 ###    WARNING: RunFile label nBas                                          ###
 ###    was used       74 times                                              ###
 ###                                                                         ###
 ###                                                                         ###
 ###############################################################################
 ###############################################################################
--- Stop Module: scf at Tue Apr  9 00:41:14 2024 /rc=_RC_ALL_IS_WELL_ ---
*** files: n2.GssOrb n2.guessorb.h5 n2.guessorb.molden n2.scf.molden n2.ScfOrb n2.scf.h5 xmldump
    saved to directory /public/home/xzzeng/work/HQC/N2/cc-pvtz/NO/PES/entropy/0.6/results/work_dir/n2/initial
--- Module scf spent 1 second ---

.##################.
.# Happy landing! #.
.##################.

    Timing: Wall=2.46 User=1.42 System=0.34
