[Molden Format]
[N_Atoms]
                    2
[Atoms] (AU)
N1          1      7           0.00000000      0.00000000      0.00000000
N2          2      7           0.00000000      0.00000000      6.80301405
[5D]
[7F]
[Charge] (Mulliken)
   0.0000000000000000     
   0.0000000000000000     
[GTO] (AU)
   1
   s  10
  1.142000000E+04  5.229996559E-04
  1.712000000E+03  4.044997339E-03
  3.893000000E+02  2.077498633E-02
  1.100000000E+02  8.072694689E-02
  3.557000000E+01  2.330738467E-01
  1.254000000E+01  4.335007148E-01
  4.644000000E+00  3.474717714E-01
  1.293000000E+00  4.126197285E-02
  5.118000000E-01 -8.507994403E-03
  1.787000000E-01  2.383998432E-03
   s  10
  1.142000000E+04 -1.149999544E-04
  1.712000000E+03 -8.949996452E-04
  3.893000000E+02 -4.623998167E-03
  1.100000000E+02 -1.852799265E-02
  3.557000000E+01 -5.733897727E-02
  1.254000000E+01 -1.320759476E-01
  4.644000000E+00 -1.725099316E-01
  1.293000000E+00  1.518139398E-01
  5.118000000E-01  5.999437621E-01
  1.787000000E-01  3.874618464E-01
   s   1
  1.293000000E+00  1.000000000E+00
   s   1
  1.787000000E-01  1.000000000E+00
   p   5
  2.663000000E+01  1.467000345E-02
  5.948000000E+00  9.176402155E-02
  1.742000000E+00  2.986830701E-01
  5.550000000E-01  4.984871171E-01
  1.725000000E-01  3.370230791E-01
   p   1
  5.550000000E-01  1.000000000E+00
   p   1
  1.725000000E-01  1.000000000E+00
   d   1
  1.654000000E+00  1.000000000E+00
   d   1
  4.690000000E-01  1.000000000E+00
   f   1
  1.093000000E+00  1.000000000E+00
 
   2
   s  10
  1.142000000E+04  5.229996559E-04
  1.712000000E+03  4.044997339E-03
  3.893000000E+02  2.077498633E-02
  1.100000000E+02  8.072694689E-02
  3.557000000E+01  2.330738467E-01
  1.254000000E+01  4.335007148E-01
  4.644000000E+00  3.474717714E-01
  1.293000000E+00  4.126197285E-02
  5.118000000E-01 -8.507994403E-03
  1.787000000E-01  2.383998432E-03
   s  10
  1.142000000E+04 -1.149999544E-04
  1.712000000E+03 -8.949996452E-04
  3.893000000E+02 -4.623998167E-03
  1.100000000E+02 -1.852799265E-02
  3.557000000E+01 -5.733897727E-02
  1.254000000E+01 -1.320759476E-01
  4.644000000E+00 -1.725099316E-01
  1.293000000E+00  1.518139398E-01
  5.118000000E-01  5.999437621E-01
  1.787000000E-01  3.874618464E-01
   s   1
  1.293000000E+00  1.000000000E+00
   s   1
  1.787000000E-01  1.000000000E+00
   p   5
  2.663000000E+01  1.467000345E-02
  5.948000000E+00  9.176402155E-02
  1.742000000E+00  2.986830701E-01
  5.550000000E-01  4.984871171E-01
  1.725000000E-01  3.370230791E-01
   p   1
  5.550000000E-01  1.000000000E+00
   p   1
  1.725000000E-01  1.000000000E+00
   d   1
  1.654000000E+00  1.000000000E+00
   d   1
  4.690000000E-01  1.000000000E+00
   f   1
  1.093000000E+00  1.000000000E+00
 
[MO]
Sym=     1a  
Ene=   -15.6340
Spin= Alpha
Occup=    2.00000
   1         0.70768605
   2         0.00343001
   3        -0.00165278
   4         0.00194495
   5        -0.00000000
   6         0.00000000
   7         0.00000656
   8        -0.00000000
   9        -0.00000000
  10        -0.00000011
  11         0.00000000
  12        -0.00000000
  13        -0.00000031
  14        -0.00000000
  15        -0.00000000
  16        -0.00000000
  17         0.00000000
  18         0.00000000
  19        -0.00000000
  20         0.00000000
  21         0.00000000
  22        -0.00000000
  23        -0.00000000
  24         0.00000000
  25        -0.00000000
  26         0.00000000
  27         0.00000000
  28        -0.00000000
  29         0.00000000
  30         0.00000000
  31         0.70768605
  32         0.00343001
  33        -0.00165278
  34         0.00194495
  35        -0.00000000
  36         0.00000000
  37        -0.00000656
  38        -0.00000000
  39        -0.00000000
  40         0.00000011
  41         0.00000000
  42        -0.00000000
  43         0.00000031
  44        -0.00000000
  45         0.00000000
  46        -0.00000000
  47         0.00000000
  48        -0.00000000
  49         0.00000000
  50        -0.00000000
  51         0.00000000
  52        -0.00000000
  53        -0.00000000
  54        -0.00000000
  55         0.00000000
  56         0.00000000
  57        -0.00000000
  58         0.00000000
  59         0.00000000
  60        -0.00000000
Sym=     2a  
Ene=   -15.6340
Spin= Alpha
Occup=    2.00000
   1        -0.70768719
   2        -0.00342363
   3         0.00165285
   4        -0.00194491
   5         0.00000000
   6        -0.00000000
   7         0.00000655
   8         0.00000000
   9         0.00000000
  10        -0.00000011
  11         0.00000000
  12         0.00000000
  13        -0.00000030
  14         0.00000000
  15        -0.00000000
  16         0.00000000
  17         0.00000000
  18         0.00000000
  19        -0.00000000
  20         0.00000000
  21        -0.00000000
  22        -0.00000000
  23        -0.00000000
  24         0.00000000
  25        -0.00000000
  26         0.00000000
  27         0.00000000
  28         0.00000000
  29         0.00000000
  30         0.00000000
  31         0.70768719
  32         0.00342363
  33        -0.00165285
  34         0.00194491
  35        -0.00000000
  36        -0.00000000
  37         0.00000655
  38         0.00000000
  39         0.00000000
  40        -0.00000011
  41        -0.00000000
  42         0.00000000
  43        -0.00000030
  44         0.00000000
  45        -0.00000000
  46        -0.00000000
  47        -0.00000000
  48         0.00000000
  49        -0.00000000
  50         0.00000000
  51        -0.00000000
  52         0.00000000
  53        -0.00000000
  54        -0.00000000
  55         0.00000000
  56         0.00000000
  57        -0.00000000
  58         0.00000000
  59         0.00000000
  60        -0.00000000
Sym=     3a  
Ene=    -0.9485
Spin= Alpha
Occup=    2.00000
   1        -0.00862407
   2         0.69749626
   3         0.00701096
   4         0.00402809
   5        -0.00000000
   6         0.00000000
   7         0.00962105
   8        -0.00000000
   9         0.00000000
  10        -0.00016801
  11        -0.00000000
  12        -0.00000000
  13        -0.00044783
  14         0.00000000
  15         0.00000000
  16        -0.00000000
  17        -0.00000000
  18         0.00000000
  19        -0.00000000
  20        -0.00000000
  21         0.00000000
  22        -0.00000000
  23        -0.00000000
  24        -0.00000000
  25         0.00000000
  26        -0.00000000
  27        -0.00000000
  28        -0.00000000
  29        -0.00000000
  30        -0.00000000
  31        -0.00862407
  32         0.69749626
  33         0.00701096
  34         0.00402809
  35        -0.00000000
  36         0.00000000
  37        -0.00962105
  38        -0.00000000
  39         0.00000000
  40         0.00016801
  41        -0.00000000
  42        -0.00000000
  43         0.00044783
  44        -0.00000000
  45         0.00000000
  46        -0.00000000
  47         0.00000000
  48        -0.00000000
  49        -0.00000000
  50        -0.00000000
  51         0.00000000
  52        -0.00000000
  53         0.00000000
  54        -0.00000000
  55        -0.00000000
  56        -0.00000000
  57         0.00000000
  58        -0.00000000
  59        -0.00000000
  60        -0.00000000
Sym=     4a  
Ene=    -0.9423
Spin= Alpha
Occup=    2.00000
   1         0.00854525
   2        -0.69979027
   3        -0.00703376
   4        -0.00404163
   5        -0.00000000
   6         0.00000000
   7         0.00929519
   8        -0.00000000
   9        -0.00000000
  10        -0.00016232
  11         0.00000000
  12        -0.00000000
  13        -0.00043267
  14        -0.00000000
  15         0.00000000
  16         0.00000000
  17        -0.00000000
  18         0.00000000
  19         0.00000000
  20        -0.00000000
  21         0.00000000
  22         0.00000000
  23        -0.00000000
  24        -0.00000000
  25        -0.00000000
  26        -0.00000000
  27         0.00000000
  28        -0.00000000
  29        -0.00000000
  30         0.00000000
  31        -0.00854525
  32         0.69979027
  33         0.00703376
  34         0.00404163
  35         0.00000000
  36         0.00000000
  37         0.00929519
  38         0.00000000
  39        -0.00000000
  40        -0.00016232
  41        -0.00000000
  42        -0.00000000
  43        -0.00043267
  44         0.00000000
  45         0.00000000
  46        -0.00000000
  47        -0.00000000
  48         0.00000000
  49         0.00000000
  50        -0.00000000
  51        -0.00000000
  52         0.00000000
  53        -0.00000000
  54         0.00000000
  55         0.00000000
  56        -0.00000000
  57         0.00000000
  58         0.00000000
  59        -0.00000000
  60         0.00000000
Sym=     5a  
Ene=    -0.5807
Spin= Alpha
Occup=    1.00000
   1        -0.00001432
   2         0.01484427
   3         0.00014881
   4         0.00008619
   5        -0.00000000
   6        -0.00000000
   7        -0.73849854
   8         0.00000000
   9        -0.00000000
  10         0.01289596
  11         0.00000000
  12        -0.00000000
  13         0.03437514
  14         0.00000000
  15         0.00000000
  16        -0.00000000
  17        -0.00000000
  18         0.00000000
  19        -0.00000000
  20        -0.00000000
  21         0.00000000
  22         0.00000000
  23         0.00000000
  24        -0.00000000
  25        -0.00000000
  26         0.00000000
  27         0.00000000
  28         0.00000000
  29         0.00000000
  30        -0.00000000
  31        -0.00001432
  32         0.01484427
  33         0.00014881
  34         0.00008619
  35        -0.00000000
  36         0.00000000
  37         0.73849854
  38         0.00000000
  39         0.00000000
  40        -0.01289596
  41         0.00000000
  42        -0.00000000
  43        -0.03437514
  44         0.00000000
  45         0.00000000
  46        -0.00000000
  47         0.00000000
  48         0.00000000
  49        -0.00000000
  50        -0.00000000
  51        -0.00000000
  52        -0.00000000
  53        -0.00000000
  54        -0.00000000
  55         0.00000000
  56         0.00000000
  57         0.00000000
  58        -0.00000000
  59         0.00000000
  60        -0.00000000
Sym=     6a  
Ene=    -0.5719
Spin= Alpha
Occup=    1.00000
   1         0.00000000
   2         0.00000000
   3        -0.00000000
   4         0.00000000
   5         0.74365903
   6        -0.02978739
   7         0.00000000
   8        -0.01298608
   9         0.00052016
  10        -0.00000000
  11        -0.03461535
  12         0.00138652
  13         0.00000000
  14         0.00000000
  15         0.00000000
  16        -0.00000000
  17        -0.00000000
  18        -0.00000000
  19        -0.00000000
  20        -0.00000000
  21         0.00000000
  22        -0.00000000
  23        -0.00000000
  24         0.00000000
  25        -0.00000000
  26        -0.00000000
  27        -0.00000000
  28        -0.00000000
  29        -0.00000000
  30         0.00000000
  31        -0.00000000
  32        -0.00000000
  33         0.00000000
  34         0.00000000
  35         0.74365903
  36        -0.02978739
  37         0.00000000
  38        -0.01298608
  39         0.00052016
  40        -0.00000000
  41        -0.03461535
  42         0.00138652
  43        -0.00000000
  44        -0.00000000
  45        -0.00000000
  46        -0.00000000
  47        -0.00000000
  48         0.00000000
  49        -0.00000000
  50        -0.00000000
  51         0.00000000
  52         0.00000000
  53        -0.00000000
  54         0.00000000
  55        -0.00000000
  56         0.00000000
  57        -0.00000000
  58         0.00000000
  59        -0.00000000
  60         0.00000000
Sym=     7a  
Ene=    -0.5719
Spin= Alpha
Occup=    1.00000
   1         0.00000000
   2         0.00000000
   3        -0.00000000
   4        -0.00000000
   5         0.02978739
   6         0.74365903
   7        -0.00000000
   8        -0.00052016
   9        -0.01298608
  10        -0.00000000
  11        -0.00138652
  12        -0.03461535
  13         0.00000000
  14        -0.00000000
  15         0.00000000
  16         0.00000000
  17         0.00000000
  18        -0.00000000
  19         0.00000000
  20        -0.00000000
  21         0.00000000
  22        -0.00000000
  23         0.00000000
  24         0.00000000
  25        -0.00000000
  26         0.00000000
  27        -0.00000000
  28        -0.00000000
  29         0.00000000
  30        -0.00000000
  31         0.00000000
  32         0.00000000
  33        -0.00000000
  34        -0.00000000
  35         0.02978739
  36         0.74365903
  37        -0.00000000
  38        -0.00052016
  39        -0.01298608
  40        -0.00000000
  41        -0.00138652
  42        -0.03461535
  43         0.00000000
  44         0.00000000
  45         0.00000000
  46        -0.00000000
  47         0.00000000
  48         0.00000000
  49         0.00000000
  50         0.00000000
  51        -0.00000000
  52        -0.00000000
  53         0.00000000
  54        -0.00000000
  55        -0.00000000
  56        -0.00000000
  57        -0.00000000
  58        -0.00000000
  59         0.00000000
  60        -0.00000000
Sym=     8a  
Ene=    -0.5693
Spin= Alpha
Occup=    1.00000
   1        -0.00000000
   2        -0.00000000
   3         0.00000000
   4         0.00000000
   5        -0.01534710
   6        -0.74576255
   7        -0.00000000
   8         0.00026800
   9         0.01302281
  10         0.00000000
  11         0.00071437
  12         0.03471326
  13         0.00000000
  14        -0.00000000
  15        -0.00000000
  16         0.00000000
  17         0.00000000
  18        -0.00000000
  19         0.00000000
  20         0.00000000
  21        -0.00000000
  22         0.00000000
  23         0.00000000
  24        -0.00000000
  25        -0.00000000
  26         0.00000000
  27        -0.00000000
  28         0.00000000
  29         0.00000000
  30         0.00000000
  31        -0.00000000
  32         0.00000000
  33         0.00000000
  34        -0.00000000
  35         0.01534710
  36         0.74576255
  37        -0.00000000
  38        -0.00026800
  39        -0.01302281
  40         0.00000000
  41        -0.00071437
  42        -0.03471326
  43         0.00000000
  44        -0.00000000
  45        -0.00000000
  46        -0.00000000
  47         0.00000000
  48         0.00000000
  49         0.00000000
  50        -0.00000000
  51         0.00000000
  52        -0.00000000
  53         0.00000000
  54         0.00000000
  55        -0.00000000
  56        -0.00000000
  57        -0.00000000
  58        -0.00000000
  59         0.00000000
  60        -0.00000000
Sym=     9a  
Ene=    -0.5693
Spin= Alpha
Occup=    1.00000
   1         0.00000000
   2         0.00000000
   3        -0.00000000
   4        -0.00000000
   5        -0.74576255
   6         0.01534710
   7         0.00000000
   8         0.01302281
   9        -0.00026800
  10        -0.00000000
  11         0.03471326
  12        -0.00071437
  13        -0.00000000
  14         0.00000000
  15        -0.00000000
  16         0.00000000
  17        -0.00000000
  18        -0.00000000
  19        -0.00000000
  20         0.00000000
  21         0.00000000
  22        -0.00000000
  23        -0.00000000
  24         0.00000000
  25        -0.00000000
  26         0.00000000
  27         0.00000000
  28         0.00000000
  29        -0.00000000
  30        -0.00000000
  31        -0.00000000
  32        -0.00000000
  33         0.00000000
  34         0.00000000
  35         0.74576255
  36        -0.01534710
  37         0.00000000
  38        -0.01302281
  39         0.00026800
  40        -0.00000000
  41        -0.03471326
  42         0.00071437
  43        -0.00000000
  44         0.00000000
  45        -0.00000000
  46        -0.00000000
  47         0.00000000
  48         0.00000000
  49        -0.00000000
  50         0.00000000
  51        -0.00000000
  52        -0.00000000
  53        -0.00000000
  54        -0.00000000
  55        -0.00000000
  56        -0.00000000
  57         0.00000000
  58         0.00000000
  59        -0.00000000
  60        -0.00000000
Sym=    10a  
Ene=    -0.5603
Spin= Alpha
Occup=    1.00000
   1        -0.00000572
   2         0.01455169
   3         0.00014585
   4         0.00008451
   5        -0.00000000
   6        -0.00000000
   7         0.75178367
   8         0.00000000
   9         0.00000000
  10        -0.01312796
  11         0.00000000
  12         0.00000000
  13        -0.03499353
  14         0.00000000
  15        -0.00000000
  16         0.00000000
  17        -0.00000000
  18         0.00000000
  19        -0.00000000
  20         0.00000000
  21         0.00000000
  22         0.00000000
  23        -0.00000000
  24         0.00000000
  25        -0.00000000
  26        -0.00000000
  27        -0.00000000
  28         0.00000000
  29         0.00000000
  30        -0.00000000
  31         0.00000572
  32        -0.01455169
  33        -0.00014585
  34        -0.00008451
  35         0.00000000
  36         0.00000000
  37         0.75178367
  38         0.00000000
  39         0.00000000
  40        -0.01312796
  41        -0.00000000
  42        -0.00000000
  43        -0.03499353
  44        -0.00000000
  45        -0.00000000
  46         0.00000000
  47        -0.00000000
  48         0.00000000
  49         0.00000000
  50         0.00000000
  51        -0.00000000
  52         0.00000000
  53         0.00000000
  54        -0.00000000
  55         0.00000000
  56        -0.00000000
  57        -0.00000000
  58        -0.00000000
  59        -0.00000000
  60        -0.00000000
Sym=    11a  
Ene=     3.9410
Spin= Alpha
Occup=    0.00000
   1         0.07391566
   2         0.27070872
   3        -0.06618673
   4        -0.22841413
   5         0.00000000
   6         0.00000000
   7        -0.09640028
   8        -0.00000000
   9        -0.00000000
  10         0.77365686
  11         0.00000000
  12         0.00000000
  13        -0.81920497
  14         0.00755897
  15         0.00000000
  16         0.00000000
  17        -0.00000000
  18         0.00000000
  19        -0.04725376
  20         0.00000000
  21        -0.00000000
  22         0.00000000
  23         0.00000000
  24        -0.00100723
  25         0.00000000
  26        -0.00000000
  27         0.00000000
  28         0.00000000
  29        -0.00000000
  30        -0.00000000
  31         0.07391566
  32         0.27070872
  33        -0.06618673
  34        -0.22841413
  35         0.00000000
  36        -0.00000000
  37         0.09640028
  38        -0.00000000
  39         0.00000000
  40        -0.77365686
  41         0.00000000
  42        -0.00000000
  43         0.81920497
  44         0.00755897
  45        -0.00000000
  46         0.00000000
  47        -0.00000000
  48        -0.00000000
  49        -0.04725376
  50         0.00000000
  51         0.00000000
  52         0.00000000
  53         0.00000000
  54         0.00100723
  55        -0.00000000
  56        -0.00000000
  57        -0.00000000
  58         0.00000000
  59         0.00000000
  60        -0.00000000
Sym=    12a  
Ene=     3.9877
Spin= Alpha
Occup=    0.00000
   1         0.00000000
   2         0.00000000
   3        -0.00000000
   4        -0.00000000
   5        -0.00262402
   6         0.10055698
   7        -0.00000000
   8         0.02102216
   9        -0.80560544
  10         0.00000000
  11        -0.02353873
  12         0.90204459
  13         0.00000000
  14         0.00000000
  15         0.00005639
  16        -0.00216098
  17        -0.00000000
  18         0.00000000
  19        -0.00000000
  20        -0.00035003
  21         0.01341380
  22         0.00000000
  23        -0.00000000
  24        -0.00000000
  25        -0.00000894
  26         0.00034247
  27         0.00000000
  28         0.00000000
  29         0.00000000
  30        -0.00000000
  31        -0.00000000
  32        -0.00000000
  33         0.00000000
  34         0.00000000
  35        -0.00262402
  36         0.10055698
  37         0.00000000
  38         0.02102216
  39        -0.80560544
  40        -0.00000000
  41        -0.02353873
  42         0.90204459
  43         0.00000000
  44         0.00000000
  45        -0.00005639
  46         0.00216098
  47        -0.00000000
  48         0.00000000
  49        -0.00000000
  50         0.00035003
  51        -0.01341380
  52         0.00000000
  53        -0.00000000
  54        -0.00000000
  55        -0.00000894
  56         0.00034247
  57        -0.00000000
  58         0.00000000
  59         0.00000000
  60        -0.00000000
Sym=    13a  
Ene=     3.9877
Spin= Alpha
Occup=    0.00000
   1        -0.00000000
   2        -0.00000000
   3         0.00000000
   4         0.00000000
   5         0.10055698
   6         0.00262402
   7         0.00000000
   8        -0.80560544
   9        -0.02102216
  10        -0.00000000
  11         0.90204459
  12         0.02353873
  13         0.00000000
  14         0.00000000
  15        -0.00216098
  16        -0.00005639
  17         0.00000000
  18         0.00000000
  19        -0.00000000
  20         0.01341380
  21         0.00035003
  22        -0.00000000
  23        -0.00000000
  24        -0.00000000
  25         0.00034247
  26         0.00000894
  27        -0.00000000
  28         0.00000000
  29         0.00000000
  30        -0.00000000
  31         0.00000000
  32         0.00000000
  33         0.00000000
  34        -0.00000000
  35         0.10055698
  36         0.00262402
  37        -0.00000000
  38        -0.80560544
  39        -0.02102216
  40         0.00000000
  41         0.90204459
  42         0.02353873
  43        -0.00000000
  44         0.00000000
  45         0.00216098
  46         0.00005639
  47        -0.00000000
  48         0.00000000
  49         0.00000000
  50        -0.01341380
  51        -0.00035003
  52         0.00000000
  53        -0.00000000
  54        -0.00000000
  55         0.00034247
  56         0.00000894
  57        -0.00000000
  58        -0.00000000
  59         0.00000000
  60         0.00000000
Sym=    14a  
Ene=     4.0316
Spin= Alpha
Occup=    0.00000
   1         0.00000000
   2         0.00000000
   3        -0.00000000
   4        -0.00000000
   5        -0.00020357
   6        -0.09883681
   7         0.00000000
   8         0.00167848
   9         0.81492793
  10        -0.00000000
  11        -0.00192056
  12        -0.93246198
  13         0.00000000
  14         0.00000000
  15        -0.00000502
  16        -0.00243506
  17         0.00000000
  18         0.00000000
  19        -0.00000000
  20         0.00003164
  21         0.01536365
  22        -0.00000000
  23        -0.00000000
  24        -0.00000000
  25         0.00000076
  26         0.00036792
  27        -0.00000000
  28        -0.00000000
  29        -0.00000000
  30         0.00000000
  31        -0.00000000
  32        -0.00000000
  33         0.00000000
  34         0.00000000
  35         0.00020357
  36         0.09883681
  37         0.00000000
  38        -0.00167848
  39        -0.81492793
  40        -0.00000000
  41         0.00192056
  42         0.93246198
  43         0.00000000
  44        -0.00000000
  45        -0.00000502
  46        -0.00243506
  47        -0.00000000
  48         0.00000000
  49         0.00000000
  50         0.00003164
  51         0.01536365
  52         0.00000000
  53        -0.00000000
  54         0.00000000
  55        -0.00000076
  56        -0.00036792
  57        -0.00000000
  58         0.00000000
  59        -0.00000000
  60        -0.00000000
Sym=    15a  
Ene=     4.0316
Spin= Alpha
Occup=    0.00000
   1        -0.00000000
   2        -0.00000000
   3         0.00000000
   4         0.00000000
   5        -0.09883681
   6         0.00020357
   7         0.00000000
   8         0.81492793
   9        -0.00167848
  10        -0.00000000
  11        -0.93246198
  12         0.00192056
  13        -0.00000000
  14        -0.00000000
  15        -0.00243506
  16         0.00000502
  17         0.00000000
  18        -0.00000000
  19         0.00000000
  20         0.01536365
  21        -0.00003164
  22         0.00000000
  23         0.00000000
  24        -0.00000000
  25         0.00036792
  26        -0.00000076
  27        -0.00000000
  28        -0.00000000
  29        -0.00000000
  30        -0.00000000
  31        -0.00000000
  32         0.00000000
  33         0.00000000
  34         0.00000000
  35         0.09883681
  36        -0.00020357
  37        -0.00000000
  38        -0.81492793
  39         0.00167848
  40         0.00000000
  41         0.93246198
  42        -0.00192056
  43        -0.00000000
  44        -0.00000000
  45        -0.00243506
  46         0.00000502
  47         0.00000000
  48        -0.00000000
  49        -0.00000000
  50         0.01536365
  51        -0.00003164
  52        -0.00000000
  53         0.00000000
  54         0.00000000
  55        -0.00036792
  56         0.00000076
  57         0.00000000
  58         0.00000000
  59         0.00000000
  60        -0.00000000
Sym=    16a  
Ene=     4.0996
Spin= Alpha
Occup=    0.00000
   1         0.14359729
   2         0.52542783
   3        -0.12183978
   4        -0.46905187
   5         0.00000000
   6         0.00000000
   7         0.09608726
   8        -0.00000000
   9        -0.00000000
  10        -0.80895009
  11         0.00000000
  12         0.00000000
  13         0.97645997
  14         0.01137968
  15         0.00000000
  16         0.00000000
  17        -0.00000000
  18        -0.00000000
  19        -0.07524749
  20        -0.00000000
  21        -0.00000000
  22         0.00000000
  23         0.00000000
  24        -0.00126511
  25         0.00000000
  26        -0.00000000
  27         0.00000000
  28        -0.00000000
  29         0.00000000
  30        -0.00000000
  31        -0.14359729
  32        -0.52542783
  33         0.12183978
  34         0.46905187
  35         0.00000000
  36        -0.00000000
  37         0.09608726
  38        -0.00000000
  39         0.00000000
  40        -0.80895009
  41         0.00000000
  42        -0.00000000
  43         0.97645997
  44        -0.01137968
  45        -0.00000000
  46        -0.00000000
  47         0.00000000
  48         0.00000000
  49         0.07524749
  50         0.00000000
  51        -0.00000000
  52        -0.00000000
  53        -0.00000000
  54        -0.00126511
  55        -0.00000000
  56        -0.00000000
  57         0.00000000
  58         0.00000000
  59        -0.00000000
  60         0.00000000
Sym=    17a  
Ene=     4.3636
Spin= Alpha
Occup=    0.00000
   1        -0.62182809
   2        -2.27895798
   3         0.49345223
   4         2.16011286
   5         0.00000000
   6         0.00000000
   7        -0.01032296
   8        -0.00000000
   9         0.00000000
  10         0.12481462
  11         0.00000000
  12        -0.00000000
  13        -0.16379231
  14        -0.00774581
  15         0.00000000
  16         0.00000000
  17         0.00000000
  18         0.00000000
  19         0.05616637
  20         0.00000000
  21         0.00000000
  22        -0.00000000
  23        -0.00000000
  24         0.00039602
  25        -0.00000000
  26         0.00000000
  27         0.00000000
  28         0.00000000
  29         0.00000000
  30         0.00000000
  31        -0.62182809
  32        -2.27895798
  33         0.49345223
  34         2.16011286
  35         0.00000000
  36        -0.00000000
  37         0.01032296
  38        -0.00000000
  39         0.00000000
  40        -0.12481462
  41         0.00000000
  42         0.00000000
  43         0.16379231
  44        -0.00774581
  45         0.00000000
  46        -0.00000000
  47         0.00000000
  48         0.00000000
  49         0.05616637
  50         0.00000000
  51         0.00000000
  52        -0.00000000
  53        -0.00000000
  54        -0.00039602
  55         0.00000000
  56        -0.00000000
  57        -0.00000000
  58         0.00000000
  59        -0.00000000
  60        -0.00000000
Sym=    18a  
Ene=     4.4657
Spin= Alpha
Occup=    0.00000
   1        -0.58761804
   2        -2.15769868
   3         0.45787779
   4         2.07163456
   5        -0.00000000
   6         0.00000000
   7         0.01349349
   8         0.00000000
   9        -0.00000000
  10        -0.17445130
  11         0.00000000
  12         0.00000000
  13         0.24498625
  14         0.03441967
  15         0.00000000
  16        -0.00000000
  17         0.00000000
  18        -0.00000000
  19        -0.26641675
  20        -0.00000000
  21        -0.00000000
  22        -0.00000000
  23         0.00000000
  24        -0.00116841
  25        -0.00000000
  26         0.00000000
  27        -0.00000000
  28        -0.00000000
  29        -0.00000000
  30        -0.00000000
  31         0.58761804
  32         2.15769868
  33        -0.45787779
  34        -2.07163456
  35        -0.00000000
  36         0.00000000
  37         0.01349349
  38         0.00000000
  39         0.00000000
  40        -0.17445130
  41         0.00000000
  42        -0.00000000
  43         0.24498625
  44        -0.03441967
  45        -0.00000000
  46         0.00000000
  47        -0.00000000
  48        -0.00000000
  49         0.26641675
  50         0.00000000
  51        -0.00000000
  52         0.00000000
  53         0.00000000
  54        -0.00116841
  55         0.00000000
  56         0.00000000
  57         0.00000000
  58         0.00000000
  59        -0.00000000
  60         0.00000000
Sym=    19a  
Ene=     4.5770
Spin= Alpha
Occup=    0.00000
   1         0.05666429
   2         0.20916747
   3        -0.04415381
   4        -0.19944313
   5        -0.00000000
   6        -0.00000000
   7        -0.00191026
   8         0.00000000