[Molden Format]
[N_Atoms]
                    2
[Atoms] (AU)
N1          1      7           0.00000000      0.00000000      0.00000000
N2          2      7           0.00000000      0.00000000      2.26767135
[5D]
[7F]
[Charge] (Mulliken)
   0.0000000000000000     
   0.0000000000000000     
[GTO] (AU)
   1
   s  10
  1.142000000E+04  5.229996559E-04
  1.712000000E+03  4.044997339E-03
  3.893000000E+02  2.077498633E-02
  1.100000000E+02  8.072694689E-02
  3.557000000E+01  2.330738467E-01
  1.254000000E+01  4.335007148E-01
  4.644000000E+00  3.474717714E-01
  1.293000000E+00  4.126197285E-02
  5.118000000E-01 -8.507994403E-03
  1.787000000E-01  2.383998432E-03
   s  10
  1.142000000E+04 -1.149999544E-04
  1.712000000E+03 -8.949996452E-04
  3.893000000E+02 -4.623998167E-03
  1.100000000E+02 -1.852799265E-02
  3.557000000E+01 -5.733897727E-02
  1.254000000E+01 -1.320759476E-01
  4.644000000E+00 -1.725099316E-01
  1.293000000E+00  1.518139398E-01
  5.118000000E-01  5.999437621E-01
  1.787000000E-01  3.874618464E-01
   s   1
  1.293000000E+00  1.000000000E+00
   s   1
  1.787000000E-01  1.000000000E+00
   p   5
  2.663000000E+01  1.467000345E-02
  5.948000000E+00  9.176402155E-02
  1.742000000E+00  2.986830701E-01
  5.550000000E-01  4.984871171E-01
  1.725000000E-01  3.370230791E-01
   p   1
  5.550000000E-01  1.000000000E+00
   p   1
  1.725000000E-01  1.000000000E+00
   d   1
  1.654000000E+00  1.000000000E+00
   d   1
  4.690000000E-01  1.000000000E+00
   f   1
  1.093000000E+00  1.000000000E+00
 
   2
   s  10
  1.142000000E+04  5.229996559E-04
  1.712000000E+03  4.044997339E-03
  3.893000000E+02  2.077498633E-02
  1.100000000E+02  8.072694689E-02
  3.557000000E+01  2.330738467E-01
  1.254000000E+01  4.335007148E-01
  4.644000000E+00  3.474717714E-01
  1.293000000E+00  4.126197285E-02
  5.118000000E-01 -8.507994403E-03
  1.787000000E-01  2.383998432E-03
   s  10
  1.142000000E+04 -1.149999544E-04
  1.712000000E+03 -8.949996452E-04
  3.893000000E+02 -4.623998167E-03
  1.100000000E+02 -1.852799265E-02
  3.557000000E+01 -5.733897727E-02
  1.254000000E+01 -1.320759476E-01
  4.644000000E+00 -1.725099316E-01
  1.293000000E+00  1.518139398E-01
  5.118000000E-01  5.999437621E-01
  1.787000000E-01  3.874618464E-01
   s   1
  1.293000000E+00  1.000000000E+00
   s   1
  1.787000000E-01  1.000000000E+00
   p   5
  2.663000000E+01  1.467000345E-02
  5.948000000E+00  9.176402155E-02
  1.742000000E+00  2.986830701E-01
  5.550000000E-01  4.984871171E-01
  1.725000000E-01  3.370230791E-01
   p   1
  5.550000000E-01  1.000000000E+00
   p   1
  1.725000000E-01  1.000000000E+00
   d   1
  1.654000000E+00  1.000000000E+00
   d   1
  4.690000000E-01  1.000000000E+00
   f   1
  1.093000000E+00  1.000000000E+00
 
[MO]
Sym=     1a  
Ene=   -15.6530
Spin= Alpha
Occup=    2.00000
   1         0.70706583
   2         0.00565242
   3        -0.00162903
   4         0.00195617
   5         0.00000000
   6        -0.00000000
   7         0.00233785
   8        -0.00000000
   9         0.00000000
  10        -0.00004082
  11        -0.00000000
  12         0.00000000
  13        -0.00010882
  14         0.00000000
  15        -0.00000000
  16        -0.00000000
  17         0.00000000
  18         0.00000000
  19         0.00000000
  20        -0.00000000
  21         0.00000000
  22        -0.00000000
  23        -0.00000000
  24         0.00000000
  25         0.00000000
  26         0.00000000
  27         0.00000000
  28        -0.00000000
  29        -0.00000000
  30         0.00000000
  31         0.70706583
  32         0.00565242
  33        -0.00162903
  34         0.00195617
  35         0.00000000
  36        -0.00000000
  37        -0.00233785
  38        -0.00000000
  39         0.00000000
  40         0.00004082
  41         0.00000000
  42        -0.00000000
  43         0.00010882
  44         0.00000000
  45         0.00000000
  46        -0.00000000
  47         0.00000000
  48         0.00000000
  49        -0.00000000
  50        -0.00000000
  51         0.00000000
  52        -0.00000000
  53        -0.00000000
  54         0.00000000
  55        -0.00000000
  56        -0.00000000
  57        -0.00000000
  58         0.00000000
  59        -0.00000000
  60        -0.00000000
Sym=     2a  
Ene=   -15.6270
Spin= Alpha
Occup=    2.00000
   1        -0.70773898
   2        -0.00141966
   3         0.00167305
   4        -0.00193342
   5         0.00000000
   6        -0.00000000
   7         0.00222660
   8        -0.00000000
   9         0.00000000
  10        -0.00003888
  11        -0.00000000
  12         0.00000000
  13        -0.00010364
  14        -0.00000000
  15         0.00000000
  16        -0.00000000
  17         0.00000000
  18         0.00000000
  19         0.00000000
  20        -0.00000000
  21         0.00000000
  22        -0.00000000
  23        -0.00000000
  24         0.00000000
  25         0.00000000
  26         0.00000000
  27        -0.00000000
  28        -0.00000000
  29         0.00000000
  30        -0.00000000
  31         0.70773898
  32         0.00141966
  33        -0.00167305
  34         0.00193342
  35         0.00000000
  36        -0.00000000
  37         0.00222660
  38        -0.00000000
  39        -0.00000000
  40        -0.00003888
  41        -0.00000000
  42        -0.00000000
  43        -0.00010364
  44        -0.00000000
  45         0.00000000
  46        -0.00000000
  47         0.00000000
  48        -0.00000000
  49        -0.00000000
  50        -0.00000000
  51         0.00000000
  52        -0.00000000
  53         0.00000000
  54        -0.00000000
  55        -0.00000000
  56        -0.00000000
  57        -0.00000000
  58        -0.00000000
  59        -0.00000000
  60         0.00000000
Sym=     3a  
Ene=    -1.4534
Spin= Alpha
Occup=    2.00000
   1        -0.04888345
   2         0.51974664
   3         0.00532551
   4         0.00288608
   5         0.00000000
   6         0.00000000
   7         0.17986486
   8        -0.00000000
   9        -0.00000000
  10        -0.00314087
  11        -0.00000000
  12        -0.00000000
  13        -0.00837223
  14        -0.00000000
  15        -0.00000000
  16         0.00000000
  17        -0.00000000
  18        -0.00000000
  19         0.00000000
  20        -0.00000000
  21         0.00000000
  22         0.00000000
  23         0.00000000
  24         0.00000000
  25        -0.00000000
  26         0.00000000
  27        -0.00000000
  28         0.00000000
  29         0.00000000
  30         0.00000000
  31        -0.04888345
  32         0.51974664
  33         0.00532551
  34         0.00288608
  35        -0.00000000
  36         0.00000000
  37        -0.17986486
  38         0.00000000
  39        -0.00000000
  40         0.00314087
  41         0.00000000
  42        -0.00000000
  43         0.00837223
  44        -0.00000000
  45         0.00000000
  46        -0.00000000
  47        -0.00000000
  48        -0.00000000
  49         0.00000000
  50        -0.00000000
  51         0.00000000
  52         0.00000000
  53         0.00000000
  54        -0.00000000
  55         0.00000000
  56        -0.00000000
  57        -0.00000000
  58        -0.00000000
  59         0.00000000
  60        -0.00000000
Sym=     4a  
Ene=    -0.8132
Spin= Alpha
Occup=    2.00000
   1         0.00920728
   2        -0.58860112
   3        -0.00592099
   4        -0.00339397
   5         0.00000000
   6        -0.00000000
   7         0.38957513
   8        -0.00000000
   9        -0.00000000
  10        -0.00680292
  11        -0.00000000
  12        -0.00000000
  13        -0.01813368
  14         0.00000000
  15        -0.00000000
  16         0.00000000
  17         0.00000000
  18         0.00000000
  19         0.00000000
  20         0.00000000
  21        -0.00000000
  22        -0.00000000
  23        -0.00000000
  24         0.00000000
  25        -0.00000000
  26        -0.00000000
  27        -0.00000000
  28        -0.00000000
  29        -0.00000000
  30        -0.00000000
  31        -0.00920728
  32         0.58860112
  33         0.00592099
  34         0.00339397
  35         0.00000000
  36        -0.00000000
  37         0.38957513
  38        -0.00000000
  39         0.00000000
  40        -0.00680292
  41        -0.00000000
  42         0.00000000
  43        -0.01813368
  44        -0.00000000
  45        -0.00000000
  46        -0.00000000
  47        -0.00000000
  48        -0.00000000
  49        -0.00000000
  50         0.00000000
  51        -0.00000000
  52         0.00000000
  53         0.00000000
  54         0.00000000
  55         0.00000000
  56         0.00000000
  57        -0.00000000
  58        -0.00000000
  59         0.00000000
  60         0.00000000
Sym=     5a  
Ene=    -0.7291
Spin= Alpha
Occup=    2.00000
   1        -0.00000000
   2        -0.00000000
   3         0.00000000
   4         0.00000000
   5         0.65898418
   6         0.01523872
   7        -0.00000000
   8        -0.01150745
   9        -0.00026610
  10        -0.00000000
  11        -0.03067396
  12        -0.00070932
  13         0.00000000
  14        -0.00000000
  15         0.00000000
  16        -0.00000000
  17        -0.00000000
  18        -0.00000000
  19         0.00000000
  20        -0.00000000
  21        -0.00000000
  22        -0.00000000
  23        -0.00000000
  24        -0.00000000
  25        -0.00000000
  26        -0.00000000
  27         0.00000000
  28         0.00000000
  29        -0.00000000
  30        -0.00000000
  31        -0.00000000
  32        -0.00000000
  33         0.00000000
  34        -0.00000000
  35         0.65898418
  36         0.01523872
  37        -0.00000000
  38        -0.01150745
  39        -0.00026610
  40         0.00000000
  41        -0.03067396
  42        -0.00070932
  43         0.00000000
  44         0.00000000
  45        -0.00000000
  46         0.00000000
  47         0.00000000
  48        -0.00000000
  49        -0.00000000
  50        -0.00000000
  51        -0.00000000
  52        -0.00000000
  53         0.00000000
  54        -0.00000000
  55         0.00000000
  56         0.00000000
  57        -0.00000000
  58         0.00000000
  59        -0.00000000
  60        -0.00000000
Sym=     6a  
Ene=    -0.7291
Spin= Alpha
Occup=    2.00000
   1         0.00000000
   2         0.00000000
   3        -0.00000000
   4         0.00000000
   5        -0.01523872
   6         0.65898418
   7        -0.00000000
   8         0.00026610
   9        -0.01150745
  10         0.00000000
  11         0.00070932
  12        -0.03067396
  13         0.00000000
  14         0.00000000
  15         0.00000000
  16         0.00000000
  17        -0.00000000
  18        -0.00000000
  19         0.00000000
  20        -0.00000000
  21        -0.00000000
  22        -0.00000000
  23         0.00000000
  24         0.00000000
  25        -0.00000000
  26        -0.00000000
  27         0.00000000
  28        -0.00000000
  29         0.00000000
  30        -0.00000000
  31        -0.00000000
  32        -0.00000000
  33         0.00000000
  34        -0.00000000
  35        -0.01523872
  36         0.65898418
  37        -0.00000000
  38         0.00026610
  39        -0.01150745
  40         0.00000000
  41         0.00070932
  42        -0.03067396
  43         0.00000000
  44        -0.00000000
  45         0.00000000
  46         0.00000000
  47        -0.00000000
  48        -0.00000000
  49        -0.00000000
  50         0.00000000
  51        -0.00000000
  52         0.00000000
  53         0.00000000
  54         0.00000000
  55         0.00000000
  56         0.00000000
  57        -0.00000000
  58         0.00000000
  59         0.00000000
  60         0.00000000
Sym=     7a  
Ene=    -0.5851
Spin= Alpha
Occup=    2.00000
   1         0.03297060
   2         0.34255901
   3         0.00335457
   4         0.00207951
   5        -0.00000000
   6        -0.00000000
   7        -0.67887836
   8         0.00000000
   9         0.00000000
  10         0.01185485
  11        -0.00000000
  12         0.00000000
  13         0.03159998
  14         0.00000000
  15         0.00000000
  16        -0.00000000
  17         0.00000000
  18         0.00000000
  19         0.00000000
  20        -0.00000000
  21         0.00000000
  22         0.00000000
  23         0.00000000
  24         0.00000000
  25         0.00000000
  26         0.00000000
  27        -0.00000000
  28        -0.00000000
  29         0.00000000
  30         0.00000000
  31         0.03297060
  32         0.34255901
  33         0.00335457
  34         0.00207951
  35        -0.00000000
  36         0.00000000
  37         0.67887836
  38         0.00000000
  39        -0.00000000
  40        -0.01185485
  41         0.00000000
  42        -0.00000000
  43        -0.03159998
  44        -0.00000000
  45        -0.00000000
  46        -0.00000000
  47        -0.00000000
  48        -0.00000000
  49        -0.00000000
  50         0.00000000
  51         0.00000000
  52        -0.00000000
  53        -0.00000000
  54         0.00000000
  55        -0.00000000
  56        -0.00000000
  57        -0.00000000
  58        -0.00000000
  59         0.00000000
  60        -0.00000000
Sym=     8a  
Ene=    -0.4121
Spin= Alpha
Occup=    0.00000
   1        -0.00000000
   2        -0.00000000
   3         0.00000000
   4        -0.00000000
   5        -0.82497145
   6         0.29668387
   7         0.00000000
   8         0.01440599
   9        -0.00518082
  10        -0.00000000
  11         0.03840022
  12        -0.01380984
  13        -0.00000000
  14        -0.00000000
  15         0.00000000
  16        -0.00000000
  17        -0.00000000
  18        -0.00000000
  19        -0.00000000
  20        -0.00000000
  21         0.00000000
  22        -0.00000000
  23        -0.00000000
  24        -0.00000000
  25        -0.00000000
  26         0.00000000
  27         0.00000000
  28         0.00000000
  29         0.00000000
  30         0.00000000
  31         0.00000000
  32         0.00000000
  33        -0.00000000
  34         0.00000000
  35         0.82497145
  36        -0.29668387
  37         0.00000000
  38        -0.01440599
  39         0.00518082
  40        -0.00000000
  41        -0.03840022
  42         0.01380984
  43        -0.00000000
  44         0.00000000
  45         0.00000000
  46         0.00000000
  47         0.00000000
  48        -0.00000000
  49         0.00000000
  50        -0.00000000
  51         0.00000000
  52        -0.00000000
  53         0.00000000
  54        -0.00000000
  55         0.00000000
  56        -0.00000000
  57         0.00000000
  58        -0.00000000
  59        -0.00000000
  60         0.00000000
Sym=     9a  
Ene=    -0.4121
Spin= Alpha
Occup=    0.00000
   1         0.00000000
   2         0.00000000
   3        -0.00000000
   4         0.00000000
   5        -0.29668387
   6        -0.82497145
   7        -0.00000000
   8         0.00518082
   9         0.01440599
  10         0.00000000
  11         0.01380984
  12         0.03840022
  13         0.00000000
  14         0.00000000
  15         0.00000000
  16         0.00000000
  17        -0.00000000
  18        -0.00000000
  19         0.00000000
  20        -0.00000000
  21        -0.00000000
  22        -0.00000000
  23        -0.00000000
  24         0.00000000
  25        -0.00000000
  26        -0.00000000
  27        -0.00000000
  28         0.00000000
  29        -0.00000000
  30        -0.00000000
  31        -0.00000000
  32        -0.00000000
  33         0.00000000
  34        -0.00000000
  35         0.29668387
  36         0.82497145
  37        -0.00000000
  38        -0.00518082
  39        -0.01440599
  40         0.00000000
  41        -0.01380984
  42        -0.03840022
  43         0.00000000
  44        -0.00000000
  45         0.00000000
  46        -0.00000000
  47        -0.00000000
  48        -0.00000000
  49        -0.00000000
  50        -0.00000000
  51        -0.00000000
  52         0.00000000
  53        -0.00000000
  54         0.00000000
  55         0.00000000
  56         0.00000000
  57         0.00000000
  58         0.00000000
  59         0.00000000
  60        -0.00000000
Sym=    10a  
Ene=    -0.1680
Spin= Alpha
Occup=    0.00000
   1         0.12048576
   2         1.03520959
   3         0.01008776
   4         0.00634097
   5         0.00000000
   6        -0.00000000
   7         1.07270012
   8        -0.00000000
   9         0.00000000
  10        -0.01873193
  11         0.00000000
  12        -0.00000000
  13        -0.04993133
  14         0.00000000
  15         0.00000000
  16         0.00000000
  17        -0.00000000
  18        -0.00000000
  19        -0.00000000
  20         0.00000000
  21        -0.00000000
  22         0.00000000
  23        -0.00000000
  24        -0.00000000
  25        -0.00000000
  26        -0.00000000
  27         0.00000000
  28         0.00000000
  29         0.00000000
  30         0.00000000
  31        -0.12048576
  32        -1.03520959
  33        -0.01008776
  34        -0.00634097
  35         0.00000000
  36         0.00000000
  37         1.07270012
  38        -0.00000000
  39        -0.00000000
  40        -0.01873193
  41        -0.00000000
  42         0.00000000
  43        -0.04993133
  44         0.00000000
  45        -0.00000000
  46         0.00000000
  47         0.00000000
  48         0.00000000
  49         0.00000000
  50        -0.00000000
  51        -0.00000000
  52        -0.00000000
  53        -0.00000000
  54        -0.00000000
  55         0.00000000
  56         0.00000000
  57        -0.00000000
  58        -0.00000000
  59        -0.00000000
  60        -0.00000000
Sym=    11a  
Ene=     3.7176
Spin= Alpha
Occup=    0.00000
   1        -0.02597750
   2        -0.10310130
   3        -0.09861883
   4         8.22914926
   5        -0.00000000
   6        -0.00000000
   7        -0.14117299
   8         0.00000000
   9         0.00000000
  10         0.44046476
  11        -0.00000000
  12        -0.00000000
  13         4.59691691
  14        -0.01373064
  15        -0.00000000
  16        -0.00000000
  17         0.00000000
  18         0.00000000
  19         0.75383347
  20        -0.00000000
  21         0.00000000
  22        -0.00000000
  23         0.00000000
  24         0.07233177
  25        -0.00000000
  26         0.00000000
  27        -0.00000000
  28        -0.00000000
  29         0.00000000
  30        -0.00000000
  31         0.02597750
  32         0.10310130
  33         0.09861883
  34        -8.22914926
  35        -0.00000000
  36        -0.00000000
  37        -0.14117299
  38        -0.00000000
  39         0.00000000
  40         0.44046476
  41         0.00000000
  42        -0.00000000
  43         4.59691691
  44         0.01373064
  45        -0.00000000
  46         0.00000000
  47        -0.00000000
  48        -0.00000000
  49        -0.75383347
  50        -0.00000000
  51         0.00000000
  52         0.00000000
  53         0.00000000
  54         0.07233177
  55         0.00000000
  56        -0.00000000
  57         0.00000000
  58         0.00000000
  59         0.00000000
  60         0.00000000
Sym=    12a  
Ene=     3.9063
Spin= Alpha
Occup=    0.00000
   1         0.02123662
   2         0.06602511
   3         0.08443495
   4         0.30290049
   5        -0.00000000
   6         0.00000000
   7        -0.05983815
   8         0.00000000
   9        -0.00000000
  10         0.72390381
  11        -0.00000000
  12         0.00000000
  13        -1.27578683
  14         0.02995276
  15        -0.00000000
  16        -0.00000000
  17         0.00000000
  18         0.00000000
  19        -0.21724768
  20         0.00000000
  21         0.00000000
  22        -0.00000000
  23        -0.00000000
  24        -0.04363147
  25        -0.00000000
  26         0.00000000
  27         0.00000000
  28        -0.00000000
  29         0.00000000
  30        -0.00000000
  31         0.02123662
  32         0.06602511
  33         0.08443495
  34         0.30290049
  35        -0.00000000
  36        -0.00000000
  37         0.05983815
  38         0.00000000
  39         0.00000000
  40        -0.72390381
  41        -0.00000000
  42        -0.00000000
  43         1.27578683
  44         0.02995276
  45         0.00000000
  46         0.00000000
  47         0.00000000
  48         0.00000000
  49        -0.21724768
  50        -0.00000000
  51         0.00000000
  52         0.00000000
  53         0.00000000
  54         0.04363147
  55        -0.00000000
  56        -0.00000000
  57         0.00000000
  58         0.00000000
  59        -0.00000000
  60         0.00000000
Sym=    13a  
Ene=     3.9453
Spin= Alpha
Occup=    0.00000
   1        -0.00000000
   2        -0.00000000
   3         0.00000000
   4         0.00000000
   5         0.00995221
   6        -0.04665479
   7        -0.00000000
   8        -0.13275392
   9         0.62233475
  10         0.00000000
  11         0.34523606
  12        -1.61842603
  13         0.00000000
  14        -0.00000000
  15        -0.00511250
  16         0.02396680
  17         0.00000000
  18        -0.00000000
  19         0.00000000
  20         0.06257873
  21        -0.29336171
  22        -0.00000000
  23         0.00000000
  24        -0.00000000
  25         0.00781812
  26        -0.03665042
  27         0.00000000
  28         0.00000000
  29        -0.00000000
  30         0.00000000
  31         0.00000000
  32         0.00000000
  33         0.00000000
  34        -0.00000000
  35        -0.00995221
  36         0.04665479
  37        -0.00000000
  38         0.13275392
  39        -0.62233475
  40        -0.00000000
  41        -0.34523606
  42         1.61842603
  43         0.00000000
  44         0.00000000
  45        -0.00511250
  46         0.02396680
  47         0.00000000
  48        -0.00000000
  49        -0.00000000
  50         0.06257873
  51        -0.29336171
  52        -0.00000000
  53         0.00000000
  54         0.00000000
  55        -0.00781812
  56         0.03665042
  57        -0.00000000
  58        -0.00000000
  59        -0.00000000
  60        -0.00000000
Sym=    14a  
Ene=     3.9453
Spin= Alpha
Occup=    0.00000
   1         0.00000000
   2         0.00000000
   3        -0.00000000
   4        -0.00000000
   5        -0.04665479
   6        -0.00995221
   7        -0.00000000
   8         0.62233475
   9         0.13275392
  10         0.00000000
  11        -1.61842603
  12        -0.34523606
  13        -0.00000000
  14         0.00000000
  15         0.02396680
  16         0.00511250
  17         0.00000000
  18        -0.00000000
  19        -0.00000000
  20        -0.29336171
  21        -0.06257873
  22        -0.00000000
  23         0.00000000
  24        -0.00000000
  25        -0.03665042
  26        -0.00781812
  27        -0.00000000
  28        -0.00000000
  29        -0.00000000
  30         0.00000000
  31         0.00000000
  32         0.00000000
  33        -0.00000000
  34         0.00000000
  35         0.04665479
  36         0.00995221
  37         0.00000000
  38        -0.62233475
  39        -0.13275392
  40        -0.00000000
  41         1.61842603
  42         0.34523606
  43        -0.00000000
  44        -0.00000000
  45         0.02396680
  46         0.00511250
  47        -0.00000000
  48         0.00000000
  49         0.00000000
  50        -0.29336171
  51        -0.06257873
  52         0.00000000
  53         0.00000000
  54         0.00000000
  55         0.03665042
  56         0.00781812
  57        -0.00000000
  58         0.00000000
  59         0.00000000
  60        -0.00000000
Sym=    15a  
Ene=     4.0228
Spin= Alpha
Occup=    0.00000
   1         0.00000000
   2         0.00000000
   3        -0.00000000
   4         0.00000000
   5        -0.00314445
   6         0.11003683
   7         0.00000000
   8         0.02245549
   9        -0.78580752
  10        -0.00000000
  11        -0.02092575
  12         0.73227584
  13         0.00000000
  14        -0.00000000
  15        -0.00037227
  16         0.01302738
  17        -0.00000000
  18         0.00000000
  19         0.00000000
  20         0.00240460
  21        -0.08414668
  22         0.00000000
  23        -0.00000000
  24        -0.00000000
  25        -0.00048173
  26         0.01685772
  27        -0.00000000
  28         0.00000000
  29        -0.00000000
  30        -0.00000000
  31        -0.00000000
  32        -0.00000000
  33         0.00000000
  34        -0.00000000
  35        -0.00314445
  36         0.11003683
  37         0.00000000
  38         0.02245549
  39        -0.78580752
  40        -0.00000000
  41        -0.02092575
  42         0.73227584
  43         0.00000000
  44         0.00000000
  45         0.00037227
  46        -0.01302738
  47         0.00000000
  48         0.00000000
  49         0.00000000
  50        -0.00240460
  51         0.08414668
  52        -0.00000000
  53        -0.00000000
  54        -0.00000000
  55        -0.00048173
  56         0.01685772
  57         0.00000000
  58        -0.00000000
  59         0.00000000
  60        -0.00000000
Sym=    16a  
Ene=     4.0228
Spin= Alpha
Occup=    0.00000
   1         0.00000000
   2         0.00000000
   3         0.00000000
   4         0.00000000
   5         0.11003683
   6         0.00314445
   7        -0.00000000
   8        -0.78580752
   9        -0.02245549
  10         0.00000000
  11         0.73227584
  12         0.02092575
  13        -0.00000000
  14         0.00000000
  15         0.01302738
  16         0.00037227
  17        -0.00000000
  18        -0.00000000
  19        -0.00000000
  20        -0.08414668
  21        -0.00240460
  22         0.00000000
  23         0.00000000
  24        -0.00000000
  25         0.01685772
  26         0.00048173
  27         0.00000000
  28        -0.00000000
  29         0.00000000
  30         0.00000000
  31         0.00000000
  32        -0.00000000
  33         0.00000000
  34        -0.00000000
  35         0.11003683
  36         0.00314445
  37         0.00000000
  38        -0.78580752
  39        -0.02245549
  40        -0.00000000
  41         0.73227584
  42         0.02092575
  43         0.00000000
  44         0.00000000
  45        -0.01302738
  46        -0.00037227
  47        -0.00000000
  48         0.00000000
  49        -0.00000000
  50         0.08414668
  51         0.00240460
  52         0.00000000
  53         0.00000000
  54         0.00000000
  55         0.01685772
  56         0.00048173
  57        -0.00000000
  58         0.00000000
  59         0.00000000
  60        -0.00000000
Sym=    17a  
Ene=     4.3713
Spin= Alpha
Occup=    0.00000
   1         0.54200052
   2         1.99227071
   3        -0.45828389
   4        -1.74131993
   5         0.00000000
   6         0.00000000
   7        -0.00555433
   8        -0.00000000
   9        -0.00000000
  10        -0.02543559
  11         0.00000000
  12         0.00000000
  13        -0.08375665
  14        -0.03727969
  15        -0.00000000
  16         0.00000000
  17        -0.00000000
  18        -0.00000000
  19         0.23467339
  20         0.00000000
  21         0.00000000
  22         0.00000000
  23         0.00000000
  24        -0.02146498
  25         0.00000000
  26         0.00000000
  27        -0.00000000
  28         0.00000000
  29        -0.00000000
  30         0.00000000
  31         0.54200052
  32         1.99227071
  33        -0.45828389
  34        -1.74131993
  35        -0.00000000
  36         0.00000000
  37         0.00555433
  38         0.00000000
  39         0.00000000
  40         0.02543559
  41        -0.00000000
  42        -0.00000000
  43         0.08375665
  44        -0.03727969
  45        -0.00000000
  46         0.00000000
  47        -0.00000000
  48        -0.00000000
  49         0.23467339
  50         0.00000000
  51         0.00000000
  52         0.00000000
  53         0.00000000
  54         0.02146498
  55        -0.00000000
  56        -0.00000000
  57         0.00000000
  58        -0.00000000
  59        -0.00000000
  60         0.00000000
Sym=    18a  
Ene=     4.4555
Spin= Alpha
Occup=    0.00000
   1        -0.00000000
   2        -0.00000000
   3         0.00000000
   4         0.00000000
   5        -0.00000000
   6        -0.00000000
   7        -0.00000000
   8         0.00000000
   9         0.00000000
  10         0.00000000
  11         0.00000000
  12        -0.00000000
  13         0.00000000
  14         0.00000000
  15        -0.00000000
  16        -0.00000000
  17        -0.08453949
  18        -0.00000000
  19         0.00000000
  20         0.00000000
  21         0.00000000
  22         0.65781824
  23         0.00000000
  24         0.00000000
  25         0.00000000
  26         0.00000000
  27        -0.01263296
  28        -0.00000000
  29         0.00000000
  30        -0.00000000
  31        -0.00000000
  32        -0.00000000
  33         0.00000000
  34        -0.00000000
  35        -0.00000000
  36         0.00000000
  37        -0.00000000
  38         0.00000000
  39        -0.00000000
  40         0.00000000
  41        -0.00000000
  42         0.00000000
  43         0.00000000
  44         0.00000000
  45        -0.00000000
  46        -0.00000000
  47        -0.08453949
  48        -0.00000000
  49        -0.00000000
  50         0.00000000
  51         0.00000000
  52         0.65781824
  53         0.00000000
  54         0.00000000
  55        -0.00000000
  56        -0.00000000
  57         0.01263296
  58         0.00000000
  59         0.00000000
  60         0.00000000
Sym=    19a  
Ene=     4.4555
Spin= Alpha
Occup=    0.00000
   1        -0.00000000
   2        -0.00000000
   3         0.00000000
   4         0.00000000
   5         0.00000000
   6         0.00000000
   7        -0.00000000
   8        -0.00000000