   This run of MOLCAS is using the pymolcas driver

                             OPE
                             OPE          NMOL  CASOP  ENMOLC A   SO
                 OPE        NMOLC        AS  OP EN  MO LC     AS  OP
                OPENM       OL CA        SO  PE NM  OL CA     SOP EN
                OP EN      MO   LC       AS  OP ENMOL  CASO   PENMOL
                OP  EN     MO   LC       AS  OP EN     MO     LC ASO
               OP   E  NMOL  C  AS       OP  EN MO     LC     AS  OP
               OP  E   NMO   LC AS        OPEN  MO     LCASOP EN   M
               O  PEN   MO  LCA  SO
            OPE   NMO   L   CAS    OP
        OPENMOL  CASOP     ENMOL   CASOPE
     OPENMOLCA   SOPENMOLCASOPEN   MOLCASOPE
    OPENMOLCAS   OP           EN   MOL    CAS
    OPENMOLCAS       OP  ENM        O     LCA
    OPENMOLCAS    OPEN  MOLCASO     P  E  NMO
    OPENMOLCAS     OP               E  N  MOL
    OPENMOLCA   SO           PENM   O  L  CAS    OPEN    MO    LCAS
    OPENMOLCA   SOP           ENM   O  L  CAS   OP  EN  MOLC  AS   O
    OPENMOLCA   SOPE           NM      O  LCA   S      OP  EN MO
    OPENMOLC                AS         O  PEN   M      OL  CA  SOPE
    OPENMO        LCASOPE  NMOL        C  ASO   P      ENMOLC     AS
    OPE     NMO      LCA  SO     P     E   NM   OL  CA SO  PE N   MO
          OPENMOLCA            SOPE   NMO        LCAS  O    P  ENMO
     OPENMOLCASOPENMOLCASOPENMOLCASOPENMOLCA
        OPENMOLCASOPENMOLCASOPENMOLCASOPE
            OPENMOLCASOPENMOLCASOPENM
               OPENMOLCASOPENMOLCA        version: o822a959167d23c ?
                   OPENMOLCASO
                       OPE                tag:

 OpenMolcas is free software; you can redistribute it and/or modify it
 under the terms of the GNU Lesser General Public License version 2.1.
 OpenMolcas is distributed in the hope that it will be useful, but it
 is provided "as is" and without any express or implied warranties.
 For more details see the full text of the license in the file
 LICENSE or in <http://www.gnu.org/licenses/>.

                 Copyright (C) The OpenMolcas Authors
           For the author list and the recommended citation,
                   consult the file CONTRIBUTORS.md

           *************************************************
           * pymolcas version py2.28                       *
           *   build c4a6d18ded8cb6cad61d2372a9abd97c      *
           *   (after the EMIL interpreter by V. Veryazov) *
           *************************************************

configuration info
------------------
Host name: mgt (Linux)
C Compiler ID: GNU
C flags: -std=gnu99
Fortran Compiler ID: GNU
Fortran flags: -fno-aggressive-loop-optimizations -cpp -fdefault-integer-8 -fmax-stack-var-size=1048576
Definitions: _MOLCAS_;_I8_;_LINUX_
Parallel: OFF (GA=OFF)


   -------------------------------------------------------------------------------------------------------
  |
  |           Project: n2
  |    Submitted from: /public/home/xzzeng/work/HQC/N2/cc-pvtz/NO/PES/entropy/1.2/results/work_dir/n2/dmrg
  |      Scratch area: /public/home/xzzeng/work/HQC/N2/cc-pvtz/NO/PES/entropy/1.2/results/scratch
  |   Save outputs to: /public/home/xzzeng/work/HQC/N2/cc-pvtz/NO/PES/entropy/1.2/results/work_dir/n2/dmrg
  |            Molcas: /public/home/xzzeng/soft/OpenMolcas/build
  |
  | Scratch area is NOT empty
  |
  |    MOLCAS_DRIVER = /public/home/xzzeng/soft/OpenMolcas/build/pymolcas
  |    MOLCAS_NPROCS = 1
  |    MOLCAS_SOURCE = /public/home/xzzeng/soft/OpenMolcas
  | MOLCAS_STRUCTURE = 0
  |
   -------------------------------------------------------------------------------------------------------

++ ---------   Input file   ---------

&DMRGSCF
ActiveSpaceOptimizer = QCMaquis
DMRGSettings
  nsweeps = 5
  max_bond_dimension = 300
EndDMRGSettings
OOptimizationSettings
  SPIN    = 1
  NACTEL  = 10
  FILEORB = /public/home/xzzeng/work/HQC/N2/cc-pvtz/NO/PES/entropy/1.2/results/work_dir/n2/dmrg/n2.scf.h5_sel
  TYPEINDEX
  CIONLY
EndOOptimizationSettings

-- ----------------------------------

*** symbolic link created: INPORB -> n2.ScfOrb
--- Start Module: dmrgscf at Tue Apr  9 00:41:49 2024 ---

()()()()()()()()()()()()()()()()()()()()()()()()()()()()()()()()()()()()()()()()()()()()()()()()()()

                                              &DMRGSCF

                                   only a single process is used
                       available to each process: 12 GB of memory, 1 thread?
                                             pid: 59888
()()()()()()()()()()()()()()()()()()()()()()()()()()()()()()()()()()()()()()()()()()()()()()()()()()


      DMRGSCF: active space solver is set to qcmaquis
      -------                                --------


      Header of the ONEINT file:
      --------------------------
      
      Integrals generated by Gateway/Seward, Tue Apr  9 00:41:47 2024


      OrdInt status: non-squared


      Cartesian coordinates in Angstrom:
      -----------------------------------------------------
      No.  Label        X            Y            Z        
      -----------------------------------------------------
       1   N1         0.00000000   0.00000000   0.00000000
       2   N2         0.00000000   0.00000000   1.20000000
      -----------------------------------------------------
      Nuclear repulsion energy =   21.60806945

++    Wave function specifications:
      -----------------------------

      Number of closed shell electrons           4
      Number of electrons in active shells      10
      Max number of holes in RAS1 space          0
      Max nr of electrons in RAS3 space          0
      Number of inactive orbitals                2
      Number of active orbitals                  8
      Number of secondary orbitals              50
      Spin quantum number                      0.0
      State symmetry                             1
--

++    Orbital specifications:
      -----------------------

      Symmetry species                           1
                                                 a
      Frozen orbitals                            0
      Inactive orbitals                          2
      Active orbitals                            8
      RAS1 orbitals                              0
      RAS2 orbitals                              8
      RAS3 orbitals                              0
      Secondary orbitals                        50
      Deleted orbitals                           0
      Number of basis functions                 60
--

++    DMRG specifications:
      ----------------------------

      Number of renormalized states              300
      (Max) number of sweeps                     5
      Convergence threshold (sweep tolerance)    0.100E-07
      Jacobi-Davidson threshold                  0.100E-10
      SVD truncation threshold (initial)         1e-50
      SVD truncation threshold (final)           0.100E-10
      Number of root(s) required                 1
      Root chosen for geometry opt.              1
      DMRG root used                             1
         
--

++    Optimization specifications:
      ----------------------------

      RASSCF algorithm: LK Cholesky
      Maximum number of macro iterations       200
      Maximum number of SX iterations          100
      Threshold for RASSCF energy            1.000E-08
      Threshold for max MO rotation          1.000E-01
      Threshold for max BLB element          1.000E-04
      Level shift parameter                  5.000E-01
      Make Quasi-Newton update
--

      The MO-coefficients are taken from the file:
      /public/home/xzzeng/work/HQC/N2/cc-pvtz/NO/PES/entropy/1.2/results/work_dir/n2/dmrg/n2.scf.h5_sel                                                                                                                                                               

      Total molecular charge    0.00

      ************************************************************************************************************************
      *                                                                                                                      *
      *                                            Wave function control section                                             *
      *                                                                                                                      *
      ************************************************************************************************************************


                                         DMRGCI only, no orbital optimization will be done.
                                         --------------------------------------------------

                                             Please cite for the QCMaquis-Molcas driver:

                                    Freitag L.; Keller S.; Knecht S.; Lindh R.; Ma Y.; 
                                    Stein C. J. and Reiher M., in preparation. (2018).
                                    ---------------------------------------------------------------

                                             Please cite for the QCMaquis DMRG software:

                                    S. Keller, M. Dolfi, M. Troyer, M. Reiher,
                                    J. Chem. Phys. 143, 244118 (2015)
                                    ---------------------------------------------------------------



      DMRGCI energy              :    -109.0286389115
      Total time spent (hh:mm:ss):            0:00:04


      Natural orbitals and occupation numbers for root  1
      sym 1:   1.998326   1.989564   1.994727   1.932823   1.932823   0.074509   0.074509   0.002721

      ************************************************************************************************************************
      *                                                                                                                      *
      *                                                    Final results                                                     *
      *                                                                                                                      *
      ************************************************************************************************************************


++    Wave function specifications:
      -----------------------------

      Number of closed shell electrons           4
      Number of electrons in active shells      10
      Max number of holes in RAS1 space          0
      Max nr of electrons in RAS3 space          0
      Number of inactive orbitals                2
      Number of active orbitals                  8
      Number of secondary orbitals              50
      Spin quantum number                      0.0
      State symmetry                             1
--

++    Orbital specifications:
      -----------------------

      Symmetry species                           1
                                                 a
      Frozen orbitals                            0
      Inactive orbitals                          2
      Active orbitals                            8
      RAS1 orbitals                              0
      RAS2 orbitals                              8
      RAS3 orbitals                              0
      Secondary orbitals                        50
      Deleted orbitals                           0
      Number of basis functions                 60
--

++    DMRG specifications:
      ----------------------------

      Number of renormalized states              300
      (Max) number of sweeps                     5
      Convergence threshold (sweep tolerance)    0.100E-07
      Jacobi-Davidson threshold                  0.100E-10
      SVD truncation threshold (initial)         1e-50
      SVD truncation threshold (final)           0.100E-10
      Number of root(s) required                 1
      DMRG root used                             1
      highest root included in the DMRG          1
      Root passed to geometry opt.               1
--

++    Final optimization conditions:
      ------------------------------

      Average CI energy                            -109.02863891
--


      Final state energy(ies):
      ------------------------

::    RASSCF root number  1 Total energy:   -109.02863891

++    Molecular orbitals:
      -------------------

      Pseudonatural active orbitals and approximate occupation numbers




      Molecular orbitals for symmetry species 1: a  


      Orbital                 1         2         3         4         5         6         7         8         9        10
      Energy             0.0000    0.0000    0.0000    0.0000    0.0000    0.0000    0.0000    0.0000    0.0000    0.0000
      Occ. No.           0.0000    0.0000    0.0000    0.0000    0.0000    0.0000    0.0000    0.0000    0.0000    0.0000

     1 N1     1s         0.7042   -0.7096   -0.0150   -0.0053   -0.0007   -0.0000   -0.0000    0.0000    0.0000    0.0387
     2 N1     2s         0.0012    0.0023    0.6237   -0.6806    0.2280   -0.0000    0.0000    0.0000   -0.0000    0.4737
     3 N1     *s        -0.0001   -0.0004   -0.0024   -0.0025    0.0051    0.0000    0.0000    0.0000   -0.0000   -0.0434
     4 N1     *s        -0.0009   -0.0019   -0.1225   -0.0424    0.1608   -0.0000    0.0000   -0.0000   -0.0000    4.8119
     5 N1     2px        0.0000   -0.0000   -0.0000   -0.0000   -0.0000   -0.0008   -0.6162   -0.5516   -0.3498    0.0000
     6 N1     *px       -0.0000    0.0000    0.0000   -0.0000    0.0000    0.0000    0.0024    0.0184    0.0116    0.0000
     7 N1     *px       -0.0000    0.0000    0.0000   -0.0000   -0.0000    0.0000    0.0100   -0.3280   -0.2080   -0.0000
     8 N1     2py       -0.0000    0.0000    0.0000   -0.0000   -0.0000    0.6162   -0.0008    0.3498   -0.5516    0.0000
     9 N1     *py        0.0000   -0.0000   -0.0000    0.0000    0.0000   -0.0024    0.0000   -0.0116    0.0184    0.0000
    10 N1     *py        0.0000   -0.0000   -0.0000   -0.0000    0.0000   -0.0100    0.0000    0.2080   -0.3280   -0.0000
    11 N1     2pz        0.0045   -0.0034    0.2873    0.2941   -0.6856   -0.0000   -0.0000   -0.0000    0.0000    0.0449
    12 N1     *pz       -0.0025    0.0035   -0.0224   -0.0130    0.0317   -0.0000    0.0000   -0.0000   -0.0000    0.2665
    13 N1     *pz       -0.0014    0.0005   -0.0774   -0.0348    0.0729   -0.0000    0.0000   -0.0000    0.0000    3.1112
    14 N1     *d2-       0.0000   -0.0000   -0.0000   -0.0000   -0.0000    0.0000    0.0000   -0.0000   -0.0000    0.0000
    15 N1     *d2-       0.0000    0.0000    0.0000   -0.0000   -0.0000    0.0000    0.0000   -0.0000   -0.0000    0.0000
    16 N1     *d1-       0.0000    0.0000    0.0000   -0.0000    0.0000    0.0158   -0.0000   -0.0057    0.0090   -0.0000
    17 N1     *d1-       0.0000    0.0000    0.0000   -0.0000   -0.0000    0.0384   -0.0000   -0.0011    0.0017    0.0000
    18 N1     *d0        0.0004   -0.0003    0.0163    0.0034   -0.0160   -0.0000   -0.0000   -0.0000    0.0000   -0.0223
    19 N1     *d0       -0.0002    0.0004    0.0190    0.0063   -0.0188   -0.0000    0.0000   -0.0000    0.0000    0.2937
    20 N1     *d1+      -0.0000   -0.0000   -0.0000   -0.0000   -0.0000   -0.0000   -0.0158    0.0090    0.0057   -0.0000
    21 N1     *d1+      -0.0000    0.0000    0.0000   -0.0000    0.0000   -0.0000   -0.0384    0.0017    0.0011    0.0000
    22 N1     *d2+      -0.0000    0.0000   -0.0000    0.0000   -0.0000    0.0000   -0.0000   -0.0000    0.0000    0.0000
    23 N1     *d2+      -0.0000    0.0000   -0.0000    0.0000   -0.0000    0.0000   -0.0000   -0.0000    0.0000   -0.0000
    24 N1     *f3-       0.0000   -0.0000    0.0000    0.0000    0.0000   -0.0000    0.0000    0.0000   -0.0000    0.0000
    25 N1     *f2-      -0.0000   -0.0000   -0.0000   -0.0000    0.0000   -0.0000   -0.0000    0.0000    0.0000   -0.0000
    26 N1     *f1-       0.0000    0.0000   -0.0000   -0.0000   -0.0000    0.0073   -0.0000   -0.0006    0.0010   -0.0000
    27 N1     *f0       -0.0002   -0.0002    0.0068   -0.0005   -0.0052   -0.0000   -0.0000    0.0000   -0.0000    0.0274
    28 N1     *f1+       0.0000   -0.0000    0.0000   -0.0000    0.0000   -0.0000   -0.0073    0.0010    0.0006   -0.0000
    29 N1     *f2+       0.0000    0.0000    0.0000   -0.0000    0.0000   -0.0000    0.0000    0.0000   -0.0000    0.0000
    30 N1     *f3+       0.0000    0.0000    0.0000    0.0000    0.0000   -0.0000   -0.0000    0.0000    0.0000    0.0000
    31 N2     1s         0.7105    0.7033   -0.0150    0.0053   -0.0007   -0.0000    0.0000    0.0000   -0.0000   -0.0387
    32 N2     2s         0.0013   -0.0023    0.6238    0.6806    0.2280    0.0000   -0.0000    0.0000   -0.0000   -0.4736
    33 N2     *s        -0.0001    0.0004   -0.0024    0.0025    0.0051   -0.0000   -0.0000   -0.0000   -0.0000    0.0434
    34 N2     *s        -0.0009    0.0019   -0.1225    0.0424    0.1607    0.0000   -0.0000    0.0000   -0.0000   -4.8119
    35 N2     2px       -0.0000   -0.0000    0.0000   -0.0000    0.0000   -0.0008   -0.6162    0.5516    0.3498    0.0000
    36 N2     *px        0.0000    0.0000   -0.0000   -0.0000   -0.0000    0.0000    0.0024   -0.0184   -0.0116    0.0000
    37 N2     *px        0.0000   -0.0000    0.0000   -0.0000    0.0000    0.0000    0.0100    0.3280    0.2080   -0.0000
    38 N2     2py        0.0000    0.0000   -0.0000   -0.0000    0.0000    0.6162   -0.0008   -0.3498    0.5516    0.0000
    39 N2     *py       -0.0000   -0.0000    0.0000    0.0000    0.0000   -0.0024    0.0000    0.0116   -0.0184    0.0000
    40 N2     *py       -0.0000   -0.0000   -0.0000   -0.0000    0.0000   -0.0100    0.0000   -0.2080    0.3280   -0.0000
    41 N2     2pz       -0.0045   -0.0034   -0.2873    0.2941    0.6856    0.0000   -0.0000    0.0000   -0.0000    0.0449
    42 N2     *pz        0.0025    0.0035    0.0224   -0.0130   -0.0317   -0.0000    0.0000   -0.0000    0.0000    0.2665
    43 N2     *pz        0.0014    0.0005    0.0774   -0.0348   -0.0729   -0.0000   -0.0000   -0.0000   -0.0000    3.1114
    44 N2     *d2-      -0.0000   -0.0000    0.0000    0.0000    0.0000   -0.0000   -0.0000   -0.0000   -0.0000   -0.0000
    45 N2     *d2-      -0.0000    0.0000   -0.0000   -0.0000    0.0000   -0.0000   -0.0000   -0.0000   -0.0000    0.0000
    46 N2     *d1-       0.0000   -0.0000   -0.0000    0.0000    0.0000   -0.0158    0.0000   -0.0057    0.0090   -0.0000
    47 N2     *d1-       0.0000   -0.0000   -0.0000    0.0000    0.0000   -0.0384    0.0000   -0.0011    0.0017   -0.0000
    48 N2     *d0        0.0004    0.0003    0.0163   -0.0034   -0.0160   -0.0000   -0.0000   -0.0000    0.0000    0.0223
    49 N2     *d0       -0.0002   -0.0004    0.0190   -0.0063   -0.0188   -0.0000   -0.0000   -0.0000    0.0000   -0.2937
    50 N2     *d1+       0.0000    0.0000    0.0000   -0.0000   -0.0000    0.0000    0.0158    0.0090    0.0057    0.0000
    51 N2     *d1+      -0.0000    0.0000    0.0000    0.0000   -0.0000    0.0000    0.0384    0.0017    0.0011   -0.0000
    52 N2     *d2+       0.0000    0.0000    0.0000   -0.0000    0.0000   -0.0000    0.0000   -0.0000    0.0000   -0.0000
    53 N2     *d2+      -0.0000   -0.0000   -0.0000    0.0000   -0.0000   -0.0000    0.0000   -0.0000    0.0000    0.0000
    54 N2     *f3-       0.0000    0.0000   -0.0000    0.0000   -0.0000   -0.0000    0.0000    0.0000   -0.0000   -0.0000
    55 N2     *f2-       0.0000    0.0000   -0.0000    0.0000    0.0000   -0.0000    0.0000   -0.0000   -0.0000   -0.0000
    56 N2     *f1-      -0.0000    0.0000    0.0000   -0.0000   -0.0000    0.0073   -0.0000    0.0006   -0.0010   -0.0000
    57 N2     *f0        0.0002   -0.0002   -0.0068   -0.0005    0.0052    0.0000    0.0000   -0.0000    0.0000    0.0274
    58 N2     *f1+      -0.0000   -0.0000   -0.0000    0.0000   -0.0000   -0.0000   -0.0073   -0.0010   -0.0006   -0.0000
    59 N2     *f2+       0.0000    0.0000    0.0000    0.0000    0.0000    0.0000    0.0000   -0.0000    0.0000    0.0000
    60 N2     *f3+      -0.0000   -0.0000   -0.0000   -0.0000    0.0000   -0.0000   -0.0000    0.0000    0.0000   -0.0000


      Orbital                11        12        13        14        15        16        17        18        19        20
      Energy             0.0000    0.0000    0.0000    0.0000    0.0000    0.0000    0.0000    0.0000    0.0000    0.0000
      Occ. No.           0.0000    0.0000    0.0000    0.0000    0.0000    0.0000    0.0000    0.0000    0.0000    0.0000

     1 N1     1s         0.0328    0.0000    0.0000    0.3275   -0.0000   -0.0000   -0.0860   -0.1900    0.0000   -0.0000
     2 N1     2s         0.0263   -0.0000    0.0000    1.5746   -0.0000   -0.0000   -0.1318   -1.1969    0.0000   -0.0000
     3 N1     *s         0.0178   -0.0000   -0.0000   -0.0953    0.0000    0.0000    0.0270   -0.1221    0.0000    0.0000
     4 N1     *s         0.3046    0.0000    0.0000   -1.5310   -0.0000    0.0000    0.3802    9.9450   -0.0000    0.0000
     5 N1     2px        0.0000   -0.2835    0.2757    0.0000    0.5478    0.0094   -0.0000    0.0000   -0.0000   -0.0000
     6 N1     *px        0.0000   -0.2488    0.2420    0.0000    0.3077    0.0053   -0.0000    0.0000    0.0000    0.0000
     7 N1     *px       -0.0000    0.6050   -0.5885   -0.0000   -1.6032   -0.0275    0.0000   -0.0000    0.0000    0.0000
     8 N1     2py        0.0000   -0.2757   -0.2835    0.0000   -0.0094    0.5478    0.0000    0.0000    0.0000   -0.0000
     9 N1     *py        0.0000   -0.2420   -0.2488    0.0000   -0.0053    0.3077   -0.0000    0.0000   -0.0000    0.0000
    10 N1     *py       -0.0000    0.5885    0.6050   -0.0000    0.0275   -1.6032   -0.0000   -0.0000   -0.0000    0.0000
    11 N1     2pz        0.3109    0.0000   -0.0000   -0.1128    0.0000    0.0000    0.8237   -0.4513    0.0000   -0.0000
    12 N1     *pz        0.3209    0.0000    0.0000   -0.0337   -0.0000    0.0000    0.2022    1.3570   -0.0000    0.0000
    13 N1     *pz       -1.2478    0.0000    0.0000   -0.0412   -0.0000    0.0000   -0.6090    4.2521   -0.0000    0.0000
    14 N1     *d2-      -0.0000   -0.0000    0.0000    0.0000    0.0000    0.0000    0.0000    0.0000   -0.0000   -0.0093
    15 N1     *d2-       0.0000    0.0000   -0.0000    0.0000    0.0000    0.0000   -0.0000   -0.0000    0.0000    0.6233
    16 N1     *d1-       0.0000   -0.0072   -0.0074    0.0000   -0.0003    0.0169    0.0000    0.0000   -0.0000    0.0000
    17 N1     *d1-       0.0000   -0.0566   -0.0582   -0.0000    0.0030   -0.1775   -0.0000   -0.0000    0.0000    0.0000
    18 N1     *d0        0.0398    0.0000    0.0000    0.0078   -0.0000   -0.0000   -0.0121    0.0322   -0.0000    0.0000
    19 N1     *d0       -0.0733    0.0000    0.0000    0.1413   -0.0000   -0.0000   -0.2387    0.9154   -0.0000    0.0000
    20 N1     *d1+       0.0000   -0.0074    0.0072    0.0000    0.0169    0.0003    0.0000    0.0000    0.0000    0.0000
    21 N1     *d1+       0.0000   -0.0582    0.0566   -0.0000   -0.1775   -0.0030    0.0000   -0.0000    0.0000   -0.0000
    22 N1     *d2+      -0.0000    0.0000    0.0000   -0.0000    0.0000   -0.0000    0.0000    0.0000   -0.0093    0.0000
    23 N1     *d2+       0.0000   -0.0000   -0.0000    0.0000    0.0000   -0.0000   -0.0000    0.0000    0.6233   -0.0000
    24 N1     *f3-      -0.0000    0.0000    0.0000    0.0000   -0.0000    0.0000   -0.0000   -0.0000    0.0000    0.0000
    25 N1     *f2-       0.0000    0.0000   -0.0000    0.0000   -0.0000   -0.0000   -0.0000    0.0000    0.0000    0.0078
    26 N1     *f1-      -0.0000    0.0004    0.0005   -0.0000    0.0005   -0.0270   -0.0000    0.0000    0.0000   -0.0000
    27 N1     *f0       -0.0186    0.0000    0.0000   -0.0012   -0.0000    0.0000   -0.0016    0.1316   -0.0000    0.0000
    28 N1     *f1+      -0.0000    0.0005   -0.0004   -0.0000   -0.0270   -0.0005   -0.0000    0.0000   -0.0000   -0.0000
    29 N1     *f2+       0.0000   -0.0000   -0.0000   -0.0000   -0.0000    0.0000    0.0000    0.0000    0.0078   -0.0000
    30 N1     *f3+       0.0000   -0.0000    0.0000   -0.0000   -0.0000   -0.0000   -0.0000    0.0000    0.0000   -0.0000
    31 N2     1s         0.0329    0.0000    0.0000    0.3274   -0.0000   -0.0000    0.0860    0.1899   -0.0000    0.0000
    32 N2     2s         0.0263    0.0000    0.0000    1.5743   -0.0000   -0.0000    0.1318    1.1968   -0.0000    0.0000
    33 N2     *s         0.0178    0.0000   -0.0000   -0.0952    0.0000    0.0000   -0.0270    0.1222   -0.0000   -0.0000
    34 N2     *s         0.3047   -0.0000   -0.0000   -1.5309    0.0000    0.0000   -0.3802   -9.9449    0.0000   -0.0000
    35 N2     2px        0.0000   -0.2835    0.2757   -0.0000   -0.5478   -0.0094   -0.0000    0.0000    0.0000    0.0000
    36 N2     *px        0.0000   -0.2488    0.2420   -0.0000   -0.3077   -0.0053   -0.0000    0.0000   -0.0000   -0.0000
    37 N2     *px       -0.0000    0.6050   -0.5885    0.0000    1.6031    0.0275    0.0000    0.0000   -0.0000   -0.0000
    38 N2     2py        0.0000   -0.2757   -0.2835   -0.0000    0.0094   -0.5478    0.0000    0.0000   -0.0000    0.0000
    39 N2     *py        0.0000   -0.2420   -0.2488   -0.0000    0.0053   -0.3077    0.0000    0.0000    0.0000   -0.0000
    40 N2     *py       -0.0000    0.5885    0.6050    0.0000   -0.0275    1.6031    0.0000   -0.0000    0.0000   -0.0000
    41 N2     2pz       -0.3110   -0.0000    0.0000    0.1127    0.0000   -0.0000    0.8237   -0.4513    0.0000   -0.0000
    42 N2     *pz       -0.3209    0.0000    0.0000    0.0338   -0.0000   -0.0000    0.2022    1.3570   -0.0000    0.0000
    43 N2     *pz        1.2477    0.0000    0.0000    0.0412   -0.0000    0.0000   -0.6090    4.2520   -0.0000    0.0000
    44 N2     *d2-      -0.0000    0.0000   -0.0000   -0.0000    0.0000    0.0000   -0.0000    0.0000   -0.0000   -0.0093
    45 N2     *d2-       0.0000   -0.0000    0.0000   -0.0000    0.0000    0.0000    0.0000   -0.0000    0.0000    0.6233
    46 N2     *d1-       0.0000    0.0072    0.0074    0.0000   -0.0003    0.0169   -0.0000   -0.0000   -0.0000    0.0000
    47 N2     *d1-      -0.0000    0.0566    0.0582   -0.0000    0.0030   -0.1775   -0.0000    0.0000   -0.0000   -0.0000
    48 N2     *d0        0.0398    0.0000   -0.0000    0.0077   -0.0000   -0.0000    0.0121   -0.0322    0.0000   -0.0000
    49 N2     *d0       -0.0733   -0.0000   -0.0000    0.1412    0.0000   -0.0000    0.2388   -0.9154    0.0000   -0.0000
    50 N2     *d1+      -0.0000    0.0074   -0.0072    0.0000    0.0169    0.0003   -0.0000   -0.0000    0.0000    0.0000
    51 N2     *d1+      -0.0000    0.0582   -0.0566   -0.0000   -0.1775   -0.0030    0.0000    0.0000   -0.0000    0.0000
    52 N2     *d2+       0.0000   -0.0000   -0.0000   -0.0000    0.0000   -0.0000   -0.0000   -0.0000   -0.0093    0.0000
    53 N2     *d2+      -0.0000    0.0000    0.0000    0.0000    0.0000   -0.0000    0.0000    0.0000    0.6233   -0.0000
    54 N2     *f3-      -0.0000    0.0000    0.0000   -0.0000    0.0000   -0.0000   -0.0000    0.0000   -0.0000   -0.0000
    55 N2     *f2-       0.0000    0.0000    0.0000    0.0000   -0.0000    0.0000   -0.0000    0.0000   -0.0000   -0.0078
    56 N2     *f1-      -0.0000    0.0004    0.0005    0.0000   -0.0005    0.0270   -0.0000    0.0000   -0.0000    0.0000
    57 N2     *f0        0.0186    0.0000    0.0000    0.0012   -0.0000    0.0000   -0.0016    0.1316   -0.0000    0.0000
    58 N2     *f1+       0.0000    0.0005   -0.0004    0.0000    0.0270    0.0005   -0.0000    0.0000    0.0000    0.0000
    59 N2     *f2+       0.0000    0.0000   -0.0000   -0.0000    0.0000    0.0000   -0.0000   -0.0000   -0.0078    0.0000
    60 N2     *f3+      -0.0000   -0.0000    0.0000   -0.0000    0.0000    0.0000   -0.0000   -0.0000   -0.0000    0.0000


      Orbital                21        22        23        24        25        26        27        28        29        30
      Energy             0.0000    0.0000    0.0000    0.0000    0.0000    0.0000    0.0000    0.0000    0.0000    0.0000
      Occ. No.           0.0000    0.0000    0.0000    0.0000    0.0000    0.0000    0.0000    0.0000    0.0000    0.0000

     1 N1     1s         0.0000    0.0000    0.0000   -0.0000    0.0000    0.0000   -0.4098   -0.2733    0.0000    0.0000
     2 N1     2s         0.0000    0.0000    0.0000   -0.0000    0.0000    0.0000   -1.6172   -1.2877    0.0000    0.0000
     3 N1     *s        -0.0000    0.0000    0.0000    0.0000    0.0000    0.0000   -0.0371    0.0329   -0.0000   -0.0000
     4 N1     *s        -0.0000   -0.0000   -0.0000   -0.0000   -0.0000   -0.0000    1.1152   -5.1233   -0.0000   -0.0000
     5 N1     2px        0.0452    0.2122    0.0000    0.0000   -0.0669    0.3609    0.0000   -0.0000   -0.0116   -2.4239
     6 N1     *px        0.0376    0.1765   -0.0000   -0.0000   -0.0359    0.1939    0.0000    0.0000    0.0105    2.1968
     7 N1     *px       -0.0342   -0.1605   -0.0000   -0.0000   -0.1392    0.7505    0.0000    0.0000    0.0022    0.4529
     8 N1     2py        0.2122   -0.0452   -0.0000    0.0000    0.3609    0.0669    0.0000   -0.0000   -2.4239    0.0116
     9 N1     *py        0.1765   -0.0376    0.0000   -0.0000    0.1939    0.0359    0.0000    0.0000    2.1968   -0.0105
    10 N1     *py       -0.1605    0.0342    0.0000   -0.0000    0.7505    0.1392    0.0000   -0.0000    0.4529   -0.0022
    11 N1     2pz        0.0000    0.0000    0.0000    0.0000   -0.0000   -0.0000    0.3258   -0.8720    0.0000    0.0000
    12 N1     *pz       -0.0000   -0.0000   -0.0000   -0.0000    0.0000    0.0000   -0.7162   -1.0358   -0.0000   -0.0000
    13 N1     *pz       -0.0000   -0.0000   -0.0000   -0.0000   -0.0000   -0.0000    0.8396   -2.3377   -0.0000   -0.0000
    14 N1     *d2-       0.0000    0.0000    0.0000    0.0175    0.0000    0.0000    0.0000    0.0000   -0.0000   -0.0000
    15 N1     *d2-       0.0000    0.0000   -0.0000   -0.8548   -0.0000    0.0000   -0.0000    0.0000   -0.0000   -0.0000
    16 N1     *d1-      -0.0061    0.0013    0.0000   -0.0000   -0.0364   -0.0068   -0.0000   -0.0000   -0.0013    0.0000
    17 N1     *d1-      -0.6037    0.1286    0.0000   -0.0000    1.4891    0.2761    0.0000   -0.0000   -0.0763    0.0004
    18 N1     *d0       -0.0000   -0.0000   -0.0000    0.0000    0.0000    0.0000   -0.0163    0.0313    0.0000   -0.0000
    19 N1     *d0       -0.0000   -0.0000   -0.0000   -0.0000   -0.0000   -0.0000    1.0921   -1.5706   -0.0000   -0.0000
    20 N1     *d1+      -0.0013   -0.0061   -0.0000   -0.0000    0.0068   -0.0364   -0.0000   -0.0000   -0.0000   -0.0013
    21 N1     *d1+      -0.1286   -0.6037   -0.0000   -0.0000   -0.2761    1.4891    0.0000    0.0000   -0.0004   -0.0763
    22 N1     *d2+      -0.0000    0.0000    0.0175   -0.0000   -0.0000    0.0000    0.0000   -0.0000    0.0000   -0.0000
    23 N1     *d2+      -0.0000    0.0000   -0.8548    0.0000   -0.0000   -0.0000    0.0000   -0.0000    0.0000   -0.0000
    24 N1     *f3-       0.0000   -0.0000   -0.0000   -0.0000   -0.0000   -0.0000    0.0000    0.0000   -0.0000    0.0000
    25 N1     *f2-      -0.0000   -0.0000    0.0000    0.0031    0.0000    0.0000    0.0000    0.0000   -0.0000   -0.0000
    26 N1     *f1-       0.0146   -0.0031   -0.0000    0.0000    0.0634    0.0118    0.0000   -0.0000   -0.0468    0.0002
    27 N1     *f0        0.0000    0.0000   -0.0000   -0.0000   -0.0000   -0.0000    0.0313   -0.0289    0.0000   -0.0000
    28 N1     *f1+       0.0031    0.0146    0.0000    0.0000   -0.0118    0.0634    0.0000   -0.0000   -0.0002   -0.0468
    29 N1     *f2+       0.0000   -0.0000    0.0031   -0.0000   -0.0000    0.0000   -0.0000    0.0000    0.0000   -0.0000
    30 N1     *f3+      -0.0000   -0.0000   -0.0000    0.0000   -0.0000    0.0000   -0.0000    0.0000    0.0000    0.0000
    31 N2     1s        -0.0000   -0.0000   -0.0000    0.0000    0.0000    0.0000   -0.4096    0.2733   -0.0000   -0.0000
    32 N2     2s        -0.0000   -0.0000   -0.0000    0.0000    0.0000    0.0000   -1.6165    1.2880   -0.0000    0.0000
    33 N2     *s        -0.0000    0.0000   -0.0000   -0.0000    0.0000    0.0000   -0.0373   -0.0328    0.0000    0.0000
    34 N2     *s         0.0000    0.0000    0.0000    0.0000   -0.0000   -0.0000    1.1163    5.1232    0.0000    0.0000
    35 N2     2px        0.0452    0.2122    0.0000    0.0000    0.0669   -0.3609   -0.0000   -0.0000   -0.0116   -2.4243
    36 N2     *px        0.0376    0.1765    0.0000   -0.0000    0.0359   -0.1939   -0.0000    0.0000    0.0105    2.1972
    37 N2     *px       -0.0342   -0.1606   -0.0000   -0.0000    0.1392   -0.7505   -0.0000   -0.0000    0.0022    0.4529
    38 N2     2py        0.2122   -0.0452   -0.0000    0.0000   -0.3609   -0.0669   -0.0000   -0.0000   -2.4243    0.0116
    39 N2     *py        0.1765   -0.0376    0.0000    0.0000   -0.1939   -0.0359   -0.0000    0.0000    2.1972   -0.0105
    40 N2     *py       -0.1606    0.0342    0.0000   -0.0000   -0.7505   -0.1392   -0.0000    0.0000    0.4529   -0.0022
    41 N2     2pz        0.0000    0.0000    0.0000    0.0000    0.0000    0.0000   -0.3260   -0.8719    0.0000    0.0000
    42 N2     *pz       -0.0000   -0.0000   -0.0000   -0.0000   -0.0000   -0.0000    0.7157   -1.0360   -0.0000   -0.0000
    43 N2     *pz       -0.0000   -0.0000   -0.0000   -0.0000    0.0000    0.0000   -0.8402   -2.3376   -0.0000   -0.0000
    44 N2     *d2-       0.0000   -0.0000   -0.0000   -0.0175   -0.0000    0.0000   -0.0000    0.0000    0.0000    0.0000
    45 N2     *d2-      -0.0000   -0.0000    0.0000    0.8548    0.0000   -0.0000    0.0000    0.0000    0.0000    0.0000
    46 N2     *d1-       0.0061   -0.0013   -0.0000    0.0000   -0.0364   -0.0068   -0.0000    0.0000    0.0013   -0.0000
    47 N2     *d1-       0.6037   -0.1286   -0.0000    0.0000    1.4891    0.2761    0.0000   -0.0000    0.0762   -0.0004
    48 N2     *d0        0.0000   -0.0000    0.0000    0.0000    0.0000    0.0000   -0.0163   -0.0313    0.0000   -0.0000
    49 N2     *d0        0.0000   -0.0000    0.0000    0.0000   -0.0000   -0.0000    1.0925    1.5704    0.0000    0.0000
    50 N2     *d1+       0.0013    0.0061    0.0000    0.0000    0.0068   -0.0364   -0.0000    0.0000    0.0000    0.0013
    51 N2     *d1+       0.1286    0.6037    0.0000    0.0000   -0.2761    1.4891    0.0000    0.0000    0.0004    0.0762
    52 N2     *d2+       0.0000    0.0000   -0.0175    0.0000   -0.0000   -0.0000    0.0000    0.0000   -0.0000    0.0000
    53 N2     *d2+       0.0000   -0.0000    0.8548   -0.0000    0.0000    0.0000   -0.0000    0.0000   -0.0000    0.0000
    54 N2     *f3-       0.0000   -0.0000   -0.0000   -0.0000   -0.0000   -0.0000   -0.0000   -0.0000    0.0000   -0.0000
    55 N2     *f2-      -0.0000   -0.0000    0.0000    0.0031    0.0000   -0.0000    0.0000   -0.0000   -0.0000    0.0000
    56 N2     *f1-       0.0146   -0.0031   -0.0000    0.0000   -0.0634   -0.0118   -0.0000   -0.0000   -0.0469    0.0002
    57 N2     *f0        0.0000   -0.0000   -0.0000   -0.0000    0.0000    0.0000   -0.0314   -0.0289   -0.0000    0.0000
    58 N2     *f1+       0.0031    0.0146    0.0000    0.0000    0.0118   -0.0634   -0.0000   -0.0000   -0.0002   -0.0469
    59 N2     *f2+       0.0000   -0.0000    0.0031   -0.0000    0.0000    0.0000   -0.0000    0.0000   -0.0000   -0.0000
    60 N2     *f3+      -0.0000   -0.0000   -0.0000    0.0000   -0.0000    0.0000    0.0000   -0.0000   -0.0000   -0.0000


      Orbital                31        32        33        34        35        36        37        38        39        40
      Energy             0.0000    0.0000    0.0000    0.0000    0.0000    0.0000    0.0000    0.0000    0.0000    0.0000
      Occ. No.           0.0000    0.0000    0.0000    0.0000    0.0000    0.0000    0.0000    0.0000    0.0000    0.0000

     1 N1     1s         0.0047    0.0000    0.0000    0.0000    0.0000   -0.0032   -0.0000    0.0000   -0.0000    0.0000
     2 N1     2s        -0.0786    0.0000    0.0000   -0.0000    0.0000    0.8204    0.0000   -0.0000   -0.0000    0.0000
     3 N1     *s        -0.0756   -0.0000   -0.0000   -0.0000   -0.0000    0.4597    0.0000   -0.0000    0.0000   -0.0000
     4 N1     *s         0.1148   -0.0000   -0.0000   -0.0000   -0.0000    5.6301    0.0000   -0.0000   -0.0000    0.0000
     5 N1     2px        0.0000    0.0194   -2.3678    0.0000    0.0000   -0.0000   -0.0965   -0.1004    0.0000   -0.0000
     6 N1     *px       -0.0000   -0.0194    2.3628   -0.0000   -0.0000    0.0000    0.0159    0.0165   -0.0000    0.0000
     7 N1     *px       -0.0000   -0.0030    0.3622    0.0000    0.0000   -0.0000    0.0726    0.0755   -0.0000    0.0000
     8 N1     2py       -0.0000   -2.3678   -0.0194   -0.0000    0.0000   -0.0000   -0.1004    0.0965   -0.0000   -0.0000
     9 N1     *py        0.0000    2.3628    0.0194    0.0000   -0.0000    0.0000    0.0165   -0.0159    0.0000    0.0000
    10 N1     *py       -0.0000    0.3622    0.0030   -0.0000    0.0000   -0.0000    0.0755   -0.0726    0.0000    0.0000
    11 N1     2pz       -1.9032   -0.0000    0.0000    0.0000    0.0000   -2.3422   -0.0000    0.0000    0.0000   -0.0000
    12 N1     *pz        1.6913    0.0000   -0.0000   -0.0000   -0.0000    4.3529    0.0000   -0.0000   -0.0000    0.0000
    13 N1     *pz        0.3058    0.0000   -0.0000   -0.0000   -0.0000    2.9842    0.0000   -0.0000   -0.0000    0.0000
    14 N1     *d2-      -0.0000   -0.0000   -0.0000   -0.0000   -0.1048    0.0000   -0.0000   -0.0000   -0.0000    0.0000
    15 N1     *d2-      -0.0000   -0.0000    0.0000    0.0000    0.1489   -0.0000    0.0000   -0.0000    0.0000   -0.0000
    16 N1     *d1-      -0.0000   -0.0003   -0.0000   -0.0000   -0.0000   -0.0000    0.3224   -0.3098    0.0000    0.0000
    17 N1     *d1-      -0.0000    0.3003    0.0025   -0.0000    0.0000    0.0000   -0.1991    0.1913   -0.0000   -0.0000
    18 N1     *d0       -0.0414   -0.0000   -0.0000    0.0000   -0.0000   -0.0102    0.0000    0.0000   -0.0000    0.0000
    19 N1     *d0        0.1506    0.0000   -0.0000   -0.0000   -0.0000    1.4025    0.0000   -0.0000   -0.0000    0.0000
    20 N1     *d1+      -0.0000    0.0000   -0.0003   -0.0000    0.0000   -0.0000    0.3098    0.3224   -0.0000    0.0000
    21 N1     *d1+      -0.0000   -0.0025    0.3003    0.0000    0.0000    0.0000   -0.1913   -0.1991    0.0000   -0.0000
    22 N1     *d2+       0.0000    0.0000   -0.0000   -0.1048    0.0000    0.0000    0.0000   -0.0000    0.0000    0.0000
    23 N1     *d2+      -0.0000   -0.0000   -0.0000    0.1489   -0.0000   -0.0000    0.0000    0.0000   -0.0000   -0.0000
    24 N1     *f3-       0.0000    0.0000    0.0000    0.0000    0.0000   -0.0000   -0.0000    0.0000    0.1586    0.6682
    25 N1     *f2-      -0.0000   -0.0000   -0.0000   -0.0000   -0.6275   -0.0000    0.0000    0.0000   -0.0000   -0.0000
    26 N1     *f1-       0.0000   -0.1442   -0.0012   -0.0000   -0.0000   -0.0000    0.3406   -0.3273    0.0000    0.0000
    27 N1     *f0       -0.3317   -0.0000   -0.0000   -0.0000   -0.0000    0.1473    0.0000   -0.0000   -0.0000    0.0000
    28 N1     *f1+       0.0000    0.0012   -0.1442   -0.0000    0.0000   -0.0000    0.3273    0.3406   -0.0000    0.0000
    29 N1     *f2+       0.0000    0.0000   -0.0000   -0.6275    0.0000   -0.0000   -0.0000    0.0000   -0.0000    0.0000
    30 N1     *f3+      -0.0000    0.0000   -0.0000    0.0000   -0.0000    0.0000    0.0000    0.0000    0.6682   -0.1586
    31 N2     1s         0.0046    0.0000    0.0000   -0.0000   -0.0000    0.0031    0.0000   -0.0000    0.0000   -0.0000
    32 N2     2s        -0.0786    0.0000    0.0000    0.0000    0.0000   -0.8205   -0.0000    0.0000    0.0000   -0.0000
    33 N2     *s        -0.0756   -0.0000   -0.0000    0.0000    0.0000   -0.4596   -0.0000    0.0000    0.0000    0.0000
    34 N2     *s         0.1149   -0.0000    0.0000    0.0000    0.0000   -5.6300   -0.0000    0.0000    0.0000    0.0000
    35 N2     2px        0.0000   -0.0194    2.3673   -0.0000   -0.0000   -0.0000   -0.0965   -0.1004   -0.0000    0.0000
    36 N2     *px       -0.0000    0.0194   -2.3624    0.0000    0.0000    0.0000    0.0159    0.0165    0.0000   -0.0000
    37 N2     *px        0.0000    0.0030   -0.3621   -0.0000   -0.0000   -0.0000    0.0725    0.0755   -0.0000    0.0000
    38 N2     2py       -0.0000    2.3673    0.0194    0.0000   -0.0000   -0.0000   -0.1004    0.0965    0.0000    0.0000
    39 N2     *py        0.0000   -2.3624   -0.0194   -0.0000    0.0000    0.0000    0.0165   -0.0159   -0.0000   -0.0000
    40 N2     *py        0.0000   -0.3621   -0.0030    0.0000   -0.0000    0.0000    0.0755   -0.0725    0.0000    0.0000
    41 N2     2pz        1.9032    0.0000    0.0000    0.0000    0.0000   -2.3422   -0.0000    0.0000    0.0000   -0.0000
    42 N2     *pz       -1.6914   -0.0000   -0.0000   -0.0000   -0.0000    4.3529    0.0000   -0.0000   -0.0000    0.0000
    43 N2     *pz       -0.3058    0.0000   -0.0000   -0.0000   -0.0000    2.9842    0.0000   -0.0000   -0.0000    0.0000
    44 N2     *d2-       0.0000   -0.0000   -0.0000   -0.0000   -0.1048   -0.0000    0.0000    0.0000    0.0000   -0.0000
    45 N2     *d2-       0.0000    0.0000   -0.0000    0.0000    0.1489   -0.0000   -0.0000   -0.0000   -0.0000    0.0000
    46 N2     *d1-      -0.0000   -0.0003   -0.0000    0.0000    0.0000    0.0000   -0.3225    0.3098   -0.0000   -0.0000
    47 N2     *d1-      -0.0000    0.3003    0.0025   -0.0000    0.0000   -0.0000    0.1991   -0.1913    0.0000    0.0000
    48 N2     *d0       -0.0414   -0.0000   -0.0000   -0.0000    0.0000    0.0102   -0.0000    0.0000   -0.0000    0.0000
    49 N2     *d0        0.1506    0.0000    0.0000    0.0000    0.0000   -1.4025   -0.0000    0.0000    0.0000   -0.0000
    50 N2     *d1+      -0.0000    0.0000   -0.0003    0.0000   -0.0000    0.0000   -0.3098   -0.3225    0.0000   -0.0000
    51 N2     *d1+      -0.0000   -0.0025    0.3003    0.0000    0.0000   -0.0000    0.1913    0.1991   -0.0000    0.0000
    52 N2     *d2+       0.0000    0.0000   -0.0000   -0.1048    0.0000   -0.0000   -0.0000    0.0000   -0.0000   -0.0000
    53 N2     *d2+       0.0000    0.0000    0.0000    0.1489   -0.0000    0.0000    0.0000   -0.0000    0.0000    0.0000
    54 N2     *f3-       0.0000   -0.0000   -0.0000    0.0000   -0.0000    0.0000   -0.0000    0.0000    0.1586    0.6682
    55 N2     *f2-       0.0000    0.0000    0.0000    0.0000    0.6275    0.0000   -0.0000   -0.0000    0.0000   -0.0000
    56 N2     *f1-      -0.0000    0.1442    0.0012   -0.0000   -0.0000   -0.0000    0.3406   -0.3272    0.0000    0.0000
    57 N2     *f0        0.3317    0.0000   -0.0000   -0.0000   -0.0000    0.1473    0.0000   -0.0000    0.0000   -0.0000
    58 N2     *f1+       0.0000   -0.0012    0.1442   -0.0000    0.0000   -0.0000    0.3272    0.3406   -0.0000    0.0000
    59 N2     *f2+       0.0000   -0.0000    0.0000    0.6275   -0.0000    0.0000    0.0000   -0.0000   -0.0000   -0.0000
    60 N2     *f3+      -0.0000   -0.0000    0.0000   -0.0000   -0.0000   -0.0000    0.0000    0.0000    0.6682   -0.1586


      Orbital                41        42        43        44        45        46        47        48        49        50
      Energy             0.0000    0.0000    0.0000    0.0000    0.0000    0.0000    0.0000    0.0000    0.0000    0.0000
      Occ. No.           0.0000    0.0000    0.0000    0.0000    0.0000    0.0000    0.0000    0.0000    0.0000    0.0000

     1 N1     1s        -0.3208    0.0000   -0.0000    0.0000    0.0000    0.1618    0.0000   -0.0000   -0.0000   -0.0000
     2 N1     2s        -0.6906   -0.0000   -0.0000    0.0000    0.0000    0.9196    0.0000   -0.0000   -0.0000    0.0000
     3 N1     *s         0.5363   -0.0000    0.0000    0.0000    0.0000    0.1770   -0.0000   -0.0000    0.0000    0.0000
     4 N1     *s         0.4550   -0.0000   -0.0000   -0.0000    0.0000    2.0429   -0.0000   -0.0000    0.0000    0.0000
     5 N1     2px       -0.0000   -0.0000   -0.0000   -0.0000   -0.0000   -0.0000   -0.0000   -0.0000    0.0569    0.4435
     6 N1     *px        0.0000    0.0000    0.0000    0.0000    0.0000    0.0000    0.0000   -0.0000   -0.1158   -0.9026
     7 N1     *px        0.0000   -0.0000   -0.0000    0.0000    0.0000    0.0000    0.0000   -0.0000   -0.0780   -0.6081
     8 N1     2py       -0.0000   -0.0000    0.0000   -0.0000    0.0000   -0.0000   -0.0000    0.0000    0.4435   -0.0569
     9 N1     *py        0.0000    0.0000   -0.0000    0.0000   -0.0000   -0.0000   -0.0000   -0.0000   -0.9026    0.1158
    10 N1     *py        0.0000   -0.0000    0.0000    0.0000   -0.0000    0.0000   -0.0000   -0.0000   -0.6081    0.0780
    11 N1     2pz       -0.9510    0.0000    0.0000   -0.0000    0.0000    0.3302    0.0000    0.0000   -0.0000   -0.0000
    12 N1     *pz        0.8035   -0.0000   -0.0000    0.0000    0.0000    0.9312   -0.0000   -0.0000    0.0000    0.0000
    13 N1     *pz        0.0894   -0.0000   -0.0000   -0.0000    0.0000    0.9483   -0.0000   -0.0000    0.0000    0.0000
    14 N1     *d2-      -0.0000   -0.0000   -0.0000    0.8165   -0.0000   -0.0000    0.8189   -0.0000    0.0000    0.0000
    15 N1     *d2-       0.0000    0.0000    0.0000   -0.3569    0.0000    0.0000   -0.4535    0.0000    0.0000   -0.0000
    16 N1     *d1-      -0.0000    0.0000   -0.0000   -0.0000    0.0000    0.0000    0.0000    0.0000    0.7584   -0.0973
    17 N1     *d1-       0.0000   -0.0000    0.0000    0.0000   -0.0000   -0.0000   -0.0000   -0.0000   -1.2384    0.1589
    18 N1     *d0        0.6367    0.0000    0.0000    0.0000   -0.0000   -0.1899   -0.0000    0.0000    0.0000    0.0000
    19 N1     *d0       -0.4203   -0.0000   -0.0000    0.0000    0.0000    0.8741   -0.0000   -0.0000   -0.0000    0.0000
    20 N1     *d1+      -0.0000    0.0000    0.0000   -0.0000   -0.0000   -0.0000   -0.0000    0.0000    0.0973    0.7584
    21 N1     *d1+       0.0000   -0.0000   -0.0000    0.0000    0.0000    0.0000    0.0000   -0.0000   -0.1589   -1.2384
    22 N1     *d2+       0.0000   -0.0000    0.0000    0.0000    0.8163    0.0000    0.0000    0.8191   -0.0000    0.0000
    23 N1     *d2+      -0.0000    0.0000   -0.0000   -0.0000   -0.3568   -0.0000   -0.0000   -0.4536    0.0000   -0.0000
    24 N1     *f3-      -0.0000   -0.5299    0.5013   -0.0000   -0.0000    0.0000   -0.0000   -0.0000    0.0000   -0.0000
    25 N1     *f2-       0.0000   -0.0000    0.0000   -0.0805    0.0000    0.0000    0.1578   -0.0000    0.0000   -0.0000
    26 N1     *f1-       0.0000   -0.0000    0.0000    0.0000   -0.0000    0.0000   -0.0000   -0.0000   -0.4811    0.0617
    27 N1     *f0        0.1911    0.0000    0.0000    0.0000    0.0000    0.8542   -0.0000   -0.0000   -0.0000    0.0000
    28 N1     *f1+       0.0000   -0.0000   -0.0000    0.0000    0.0000    0.0000    0.0000   -0.0000   -0.0617   -0.4811
    29 N1     *f2+      -0.0000    0.0000    0.0000   -0.0000   -0.0806    0.0000    0.0000    0.1578    0.0000    0.0000
    30 N1     *f3+       0.0000    0.5013    0.5299    0.0000   -0.0000   -0.0000    0.0000   -0.0000   -0.0000   -0.0000
    31 N2     1s        -0.3207   -0.0000    0.0000   -0.0000   -0.0000   -0.1617   -0.0000    0.0000   -0.0000   -0.0000
    32 N2     2s        -0.6901   -0.0000   -0.0000   -0.0000   -0.0000   -0.9194   -0.0000    0.0000   -0.0000   -0.0000
    33 N2     *s         0.5362    0.0000   -0.0000   -0.0000    0.0000   -0.1772    0.0000    0.0000    0.0000    0.0000
    34 N2     *s         0.4554    0.0000    0.0000    0.0000   -0.0000   -2.0431    0.0000    0.0000    0.0000   -0.0000
    35 N2     2px        0.0000    0.0000    0.0000    0.0000    0.0000    0.0000   -0.0000   -0.0000   -0.0569   -0.4435
    36 N2     *px       -0.0000   -0.0000   -0.0000   -0.0000   -0.0000   -0.0000   -0.0000    0.0000    0.1158    0.9026
    37 N2     *px       -0.0000    0.0000    0.0000   -0.0000   -0.0000   -0.0000   -0.0000    0.0000    0.0780    0.6082
    38 N2     2py        0.0000    0.0000   -0.0000    0.0000   -0.0000   -0.0000   -0.0000    0.0000   -0.4435    0.0569
    39 N2     *py       -0.0000   -0.0000    0.0000   -0.0000    0.0000    0.0000    0.0000    0.0000    0.9026   -0.1158
    40 N2     *py       -0.0000    0.0000   -0.0000   -0.0000    0.0000    0.0000    0.0000    0.0000    0.6082   -0.0780
    41 N2     2pz        0.9512    0.0000    0.0000    0.0000    0.0000    0.3301    0.0000    0.0000    0.0000    0.0000
    42 N2     *pz       -0.8041   -0.0000   -0.0000    0.0000    0.0000    0.9313   -0.0000   -0.0000   -0.0000    0.0000
    43 N2     *pz       -0.0897   -0.0000   -0.0000   -0.0000    0.0000    0.9483   -0.0000   -0.0000   -0.0000    0.0000
    44 N2     *d2-       0.0000   -0.0000   -0.0000    0.8169   -0.0000   -0.0000   -0.8185    0.0000    0.0000   -0.0000
    45 N2     *d2-      -0.0000    0.0000    0.0000   -0.3572    0.0000    0.0000    0.4533   -0.0000   -0.0000    0.0000
    46 N2     *d1-      -0.0000   -0.0000    0.0000   -0.0000    0.0000   -0.0000    0.0000    0.0000    0.7586   -0.0974
    47 N2     *d1-       0.0000   -0.0000    0.0000    0.0000   -0.0000   -0.0000   -0.0000   -0.0000   -1.2385    0.1590
    48 N2     *d0        0.6367   -0.0000   -0.0000   -0.0000    0.0000    0.1899    0.0000   -0.0000    0.0000    0.0000
    49 N2     *d0       -0.4201    0.0000    0.0000   -0.0000   -0.0000   -0.8741   -0.0000    0.0000   -0.0000   -0.0000
    50 N2     *d1+      -0.0000   -0.0000   -0.0000   -0.0000   -0.0000   -0.0000   -0.0000    0.0000    0.0974    0.7586
    51 N2     *d1+       0.0000   -0.0000   -0.0000    0.0000    0.0000    0.0000    0.0000   -0.0000   -0.1590   -1.2385
    52 N2     *d2+       0.0000   -0.0000    0.0000    0.0000    0.8171   -0.0000   -0.0000   -0.8183    0.0000    0.0000
    53 N2     *d2+       0.0000    0.0000   -0.0000   -0.0000   -0.3573    0.0000    0.0000    0.4532   -0.0000   -0.0000
    54 N2     *f3-      -0.0000    0.5299   -0.5012    0.0000    0.0000   -0.0000    0.0000   -0.0000   -0.0000    0.0000
    55 N2     *f2-       0.0000    0.0000    0.0000    0.0805   -0.0000   -0.0000    0.1578   -0.0000    0.0000    0.0000
    56 N2     *f1-      -0.0000    0.0000   -0.0000   -0.0000    0.0000    0.0000    0.0000    0.0000    0.4813   -0.0618
    57 N2     *f0       -0.1911    0.0000    0.0000    0.0000    0.0000    0.8542   -0.0000   -0.0000   -0.0000    0.0000
    58 N2     *f1+      -0.0000    0.0000    0.0000   -0.0000   -0.0000    0.0000   -0.0000    0.0000    0.0618    0.4813
    59 N2     *f2+       0.0000    0.0000   -0.0000    0.0000    0.0805    0.0000    0.0000    0.1579   -0.0000    0.0000
    60 N2     *f3+       0.0000   -0.5012   -0.5299   -0.0000    0.0000    0.0000    0.0000    0.0000    0.0000    0.0000


      Orbital                51        52        53        54        55        56        57        58        59        60
      Energy             0.0000    0.0000    0.0000    0.0000    0.0000    0.0000    0.0000    0.0000    0.0000    0.0000
      Occ. No.           0.0000    0.0000    0.0000    0.0000    0.0000    0.0000    0.0000    0.0000    0.0000    0.0000

     1 N1     1s         0.0000    0.0000    0.0000    0.0000    1.5582   -0.6104   -0.7407    0.0000    0.0000    3.5211
     2 N1     2s         0.0000    0.0000    0.0000    0.0000    3.8183   -1.2043   -1.1704    0.0000    0.0000    9.9888
     3 N1     *s        -0.0000   -0.0000   -0.0000   -0.0000   -1.7081    0.8668    1.5395   -0.0000   -0.0000   -3.6953
     4 N1     *s         0.0000   -0.0000    0.0000   -0.0000   -2.4164   -0.0024    0.5595   -0.0000   -0.0000    0.0464
     5 N1     2px        0.0000    0.0000   -0.0954    0.0290    0.0000   -0.0000   -0.0000    0.0216   -0.8382    0.0000
     6 N1     *px        0.0000    0.0000   -0.0910    0.0276    0.0000    0.0000    0.0000   -0.0401    1.5557   -0.0000
     7 N1     *px        0.0000   -0.0000    0.0693   -0.0210    0.0000    0.0000    0.0000   -0.0120    0.4659   -0.0000
     8 N1     2py       -0.0000    0.0000    0.0290    0.0954    0.0000    0.0000   -0.0000   -0.8382   -0.0216    0.0000
     9 N1     *py       -0.0000    0.0000    0.0276    0.0910    0.0000   -0.0000    0.0000    1.5557    0.0401   -0.0000
    10 N1     *py        0.0000    0.0000   -0.0210   -0.0693    0.0000   -0.0000    0.0000    0.4659    0.0120   -0.0000
    11 N1     2pz       -0.0000    0.0000   -0.0000   -0.0000    0.9234    0.3323    1.5409   -0.0000   -0.0000   -1.6242
    12 N1     *pz        0.0000   -0.0000    0.0000    0.0000   -0.5839   -0.2029   -1.0378    0.0000    0.0000    6.0994
    13 N1     *pz        0.0000   -0.0000    0.0000    0.0000   -0.8128   -0.5081   -0.7343    0.0000    0.0000    2.3222
    14 N1     *d2-      -0.0000   -0.1921   -0.0000    0.0000    0.0000    0.0000   -0.0000    0.0000    0.0000   -0.0000
    15 N1     *d2-       0.0000    0.3567    0.0000   -0.0000    0.0000    0.0000    0.0000   -0.0000   -0.0000   -0.0000
    16 N1     *d1-      -0.0000    0.0000    0.2129    0.7012    0.0000    0.0000    0.0000    0.4195    0.0108    0.0000
    17 N1     *d1-       0.0000   -0.0000   -0.1113   -0.3663    0.0000   -0.0000    0.0000    0.9778    0.0252    0.0000
    18 N1     *d0        0.0000   -0.0000   -0.0000   -0.0000    0.5314    0.8605    0.3944   -0.0000   -0.0000    0.6758
    19 N1     *d0        0.0000    0.0000    0.0000    0.0000   -0.8860   -0.4269   -0.6376    0.0000    0.0000    2.3297
    20 N1     *d1+       0.0000    0.0000   -0.7012    0.2129    0.0000    0.0000    0.0000   -0.0108    0.4195    0.0000
    21 N1     *d1+      -0.0000   -0.0000    0.3663   -0.1113    0.0000   -0.0000    0.0000   -0.0252    0.9778   -0.0000
    22 N1     *d2+      -0.1921    0.0000   -0.0000   -0.0000    0.0000    0.0000    0.0000   -0.0000    0.0000   -0.0000
    23 N1     *d2+       0.3568   -0.0000    0.0000    0.0000   -0.0000   -0.0000    0.0000    0.0000   -0.0000    0.0000
    24 N1     *f3-       0.0000    0.0000    0.0000    0.0000    0.0000    0.0000    0.0000   -0.0000   -0.0000   -0.0000
    25 N1     *f2-       0.0000    0.8516    0.0000   -0.0000    0.0000   -0.0000    0.0000   -0.0000    0.0000   -0.0000
    26 N1     *f1-       0.0000   -0.0000   -0.1313   -0.4322    0.0000   -0.0000    0.0000    1.1403    0.0294    0.0000
    27 N1     *f0        0.0000    0.0000    0.0000   -0.0000   -0.3855    0.3389   -0.6215    0.0000    0.0000    0.8550
    28 N1     *f1+      -0.0000   -0.0000    0.4322   -0.1313    0.0000   -0.0000    0.0000   -0.0294    1.1403   -0.0000
    29 N1     *f2+       0.8516   -0.0000    0.0000    0.0000   -0.0000   -0.0000    0.0000   -0.0000   -0.0000    0.0000
    30 N1     *f3+       0.0000   -0.0000    0.0000   -0.0000    0.0000   -0.0000   -0.0000   -0.0000    0.0000    0.0000
    31 N2     1s         0.0000    0.0000    0.0000   -0.0000    1.5554    0.6148   -0.7403    0.0000    0.0000   -3.5217
    32 N2     2s         0.0000    0.0000   -0.0000   -0.0000    3.8120    1.2154   -1.1693    0.0000    0.0000   -9.9902
    33 N2     *s        -0.0000   -0.0000   -0.0000    0.0000   -1.7044   -0.8713    1.5392   -0.0000   -0.0000    3.6961
    34 N2     *s        -0.0000    0.0000   -0.0000   -0.0000   -2.4162   -0.0047    0.5597   -0.0000   -0.0000   -0.0456
    35 N2     2px        0.0000    0.0000   -0.0952    0.0289    0.0000    0.0000    0.0000   -0.0216    0.8382   -0.0000
    36 N2     *px       -0.0000    0.0000   -0.0914    0.0277   -0.0000   -0.0000   -0.0000    0.0401   -1.5557    0.0000
    37 N2     *px       -0.0000   -0.0000    0.0691   -0.0210   -0.0000   -0.0000   -0.0000    0.0120   -0.4659    0.0000
    38 N2     2py       -0.0000    0.0000    0.0289    0.0952   -0.0000   -0.0000    0.0000    0.8382    0.0216    0.0000
    39 N2     *py       -0.0000   -0.0000    0.0277    0.0914   -0.0000    0.0000   -0.0000   -1.5557   -0.0401   -0.0000
    40 N2     *py        0.0000   -0.0000   -0.0210   -0.0691   -0.0000    0.0000   -0.0000   -0.4659   -0.0120   -0.0000
    41 N2     2pz       -0.0000    0.0000    0.0000   -0.0000   -0.9249    0.3290   -1.5407    0.0000    0.0000   -1.6241
    42 N2     *pz        0.0000   -0.0000    0.0000    0.0000    0.5862   -0.2007    1.0367   -0.0000   -0.0000    6.0994
    43 N2     *pz        0.0000   -0.0000    0.0000    0.0000    0.8149   -0.5053    0.7341   -0.0000   -0.0000    2.3220
    44 N2     *d2-       0.0000    0.1920    0.0000   -0.0000    0.0000   -0.0000    0.0000    0.0000    0.0000    0.0000
    45 N2     *d2-      -0.0000   -0.3567   -0.0000    0.0000   -0.0000    0.0000   -0.0000   -0.0000   -0.0000    0.0000
    46 N2     *d1-       0.0000   -0.0000   -0.2129   -0.7009    0.0000   -0.0000    0.0000    0.4195    0.0108   -0.0000
    47 N2     *d1-      -0.0000    0.0000    0.1111    0.3659    0.0000    0.0000    0.0000    0.9779    0.0252    0.0000
    48 N2     *d0        0.0000   -0.0000   -0.0000    0.0000    0.5338   -0.8588    0.3948   -0.0000   -0.0000   -0.6759
    49 N2     *d0       -0.0000    0.0000    0.0000   -0.0000   -0.8879    0.4240   -0.6374    0.0000    0.0000   -2.3295
    50 N2     *d1+      -0.0000   -0.0000    0.7009   -0.2129    0.0000   -0.0000    0.0000   -0.0108    0.4195   -0.0000
    51 N2     *d1+       0.0000    0.0000   -0.3659    0.1111    0.0000    0.0000    0.0000   -0.0252    0.9779   -0.0000
    52 N2     *d2+       0.1920   -0.0000    0.0000    0.0000    0.0000   -0.0000    0.0000   -0.0000    0.0000    0.0000
    53 N2     *d2+      -0.3567    0.0000   -0.0000   -0.0000    0.0000    0.0000   -0.0000    0.0000   -0.0000   -0.0000
    54 N2     *f3-       0.0000    0.0000   -0.0000   -0.0000    0.0000   -0.0000    0.0000    0.0000    0.0000   -0.0000
    55 N2     *f2-       0.0000    0.8516    0.0000   -0.0000   -0.0000    0.0000    0.0000   -0.0000    0.0000   -0.0000
    56 N2     *f1-       0.0000   -0.0000   -0.1312   -0.4320   -0.0000   -0.0000   -0.0000   -1.1403   -0.0294   -0.0000
    57 N2     *f0        0.0000   -0.0000   -0.0000   -0.0000    0.3846    0.3403    0.6213   -0.0000   -0.0000    0.8550
    58 N2     *f1+      -0.0000   -0.0000    0.4320   -0.1312   -0.0000   -0.0000   -0.0000    0.0294   -1.1403    0.0000
    59 N2     *f2+       0.8516   -0.0000    0.0000    0.0000   -0.0000    0.0000    0.0000   -0.0000   -0.0000   -0.0000
    60 N2     *f3+       0.0000   -0.0000   -0.0000    0.0000    0.0000    0.0000   -0.0000    0.0000   -0.0000    0.0000
--

      Von Neumann Entropy (Root   1) =  0.47439


      Mulliken population analysis for root number:  1
      -----------------------------------------------


++    Molecular charges:
      ------------------

      Mulliken charges per centre and basis function type
      ---------------------------------------------------

                N1      N2    
      1s       1.9995  1.9995
      2s       1.8229  1.8230
      2px      0.9836  0.9836
      2pz      1.3947  1.3947
      2py      0.9836  0.9836
      *s      -0.0326 -0.0326
      *px     -0.0083 -0.0083
      *pz     -0.2124 -0.2123
      *py     -0.0083 -0.0083
      *d2+     0.0000  0.0000
      *d1+     0.0266  0.0266
      *d0      0.0186  0.0186
      *d1-     0.0266  0.0266
      *d2-     0.0000  0.0000
      *f3+     0.0000  0.0000
      *f2+     0.0000  0.0000
      *f1+     0.0018  0.0018
      *f0      0.0018  0.0018
      *f1-     0.0018  0.0018
      *f2-     0.0000  0.0000
      *f3-     0.0000  0.0000
      Total    7.0000  7.0000

      N-E      0.0000 -0.0000

      Total electronic charge=   14.000000

      Total            charge=   -0.000000
--



      Expectation values of various properties for root number:  1
      -----------------------------------------------------------

      Properties not supported for DMRGSCF 

++    Molecular properties:
      ---------------------

      Charge (e):
                      =   -0.0000
      Dipole Moment (Debye):
      Origin of the operator (Ang)=    0.0000    0.0000    0.0000
                   X= -7.9327E-08               Y= -9.2146E-08               Z=  5.0803E-06           Total=  5.0817E-06
      Quadrupole Moment (Debye*Ang):
      Origin of the operator (Ang)=    0.0000    0.0000    0.6000
                  XX= -1.0696E+01              XY=  5.9468E-11              XZ=  2.1347E-07              YY= -1.0696E+01
                  YZ=  2.3104E-08              ZZ= -1.1961E+01
      In traceless form (Debye*Ang)
                  XX=  6.3248E-01              XY=  8.9202E-11              XZ=  3.2020E-07              YY=  6.3248E-01
                  YZ=  3.4655E-08              ZZ= -1.2650E+00
--


      Input file to MOLDEN was generated!

      Average orbitals are written to the RASORB file
      Natural orbitals for root   1 are written to the RASORB.1 file
      Spin density orbitals for root   1 are written to the SPDORB.1 file

--- Stop Module: dmrgscf at Tue Apr  9 00:41:54 2024 /rc=_RC_ALL_IS_WELL_ ---
*** files: n2.GssOrb n2.guessorb.h5 n2.rasscf.molden n2.guessorb.molden n2.scf.molden n2.RasOrb n2.RasOrb.1 n2.dmrgscf.h5 n2.ScfOrb n2.scf.h5 n2.SpdOrb.1 xmldump
    saved to directory /public/home/xzzeng/work/HQC/N2/cc-pvtz/NO/PES/entropy/1.2/results/work_dir/n2/dmrg
--- Module dmrgscf spent 4 seconds ---

.##################.
.# Happy landing! #.
.##################.

    Timing: Wall=4.87 User=3.03 System=0.24
