[Molden Format]
[N_Atoms]
                    2
[Atoms] (AU)
N1          1      7           0.00000000      0.00000000      0.00000000
N2          2      7           0.00000000      0.00000000      2.26767135
[5D]
[7F]
[Charge] (Mulliken)
   3.8446352981225118E-005
  -3.8446353102017383E-005
[GTO] (AU)
   1
   s  10
  1.142000000E+04  5.229996559E-04
  1.712000000E+03  4.044997339E-03
  3.893000000E+02  2.077498633E-02
  1.100000000E+02  8.072694689E-02
  3.557000000E+01  2.330738467E-01
  1.254000000E+01  4.335007148E-01
  4.644000000E+00  3.474717714E-01
  1.293000000E+00  4.126197285E-02
  5.118000000E-01 -8.507994403E-03
  1.787000000E-01  2.383998432E-03
   s  10
  1.142000000E+04 -1.149999544E-04
  1.712000000E+03 -8.949996452E-04
  3.893000000E+02 -4.623998167E-03
  1.100000000E+02 -1.852799265E-02
  3.557000000E+01 -5.733897727E-02
  1.254000000E+01 -1.320759476E-01
  4.644000000E+00 -1.725099316E-01
  1.293000000E+00  1.518139398E-01
  5.118000000E-01  5.999437621E-01
  1.787000000E-01  3.874618464E-01
   s   1
  1.293000000E+00  1.000000000E+00
   s   1
  1.787000000E-01  1.000000000E+00
   p   5
  2.663000000E+01  1.467000345E-02
  5.948000000E+00  9.176402155E-02
  1.742000000E+00  2.986830701E-01
  5.550000000E-01  4.984871171E-01
  1.725000000E-01  3.370230791E-01
   p   1
  5.550000000E-01  1.000000000E+00
   p   1
  1.725000000E-01  1.000000000E+00
   d   1
  1.654000000E+00  1.000000000E+00
   d   1
  4.690000000E-01  1.000000000E+00
   f   1
  1.093000000E+00  1.000000000E+00
 
   2
   s  10
  1.142000000E+04  5.229996559E-04
  1.712000000E+03  4.044997339E-03
  3.893000000E+02  2.077498633E-02
  1.100000000E+02  8.072694689E-02
  3.557000000E+01  2.330738467E-01
  1.254000000E+01  4.335007148E-01
  4.644000000E+00  3.474717714E-01
  1.293000000E+00  4.126197285E-02
  5.118000000E-01 -8.507994403E-03
  1.787000000E-01  2.383998432E-03
   s  10
  1.142000000E+04 -1.149999544E-04
  1.712000000E+03 -8.949996452E-04
  3.893000000E+02 -4.623998167E-03
  1.100000000E+02 -1.852799265E-02
  3.557000000E+01 -5.733897727E-02
  1.254000000E+01 -1.320759476E-01
  4.644000000E+00 -1.725099316E-01
  1.293000000E+00  1.518139398E-01
  5.118000000E-01  5.999437621E-01
  1.787000000E-01  3.874618464E-01
   s   1
  1.293000000E+00  1.000000000E+00
   s   1
  1.787000000E-01  1.000000000E+00
   p   5
  2.663000000E+01  1.467000345E-02
  5.948000000E+00  9.176402155E-02
  1.742000000E+00  2.986830701E-01
  5.550000000E-01  4.984871171E-01
  1.725000000E-01  3.370230791E-01
   p   1
  5.550000000E-01  1.000000000E+00
   p   1
  1.725000000E-01  1.000000000E+00
   d   1
  1.654000000E+00  1.000000000E+00
   d   1
  4.690000000E-01  1.000000000E+00
   f   1
  1.093000000E+00  1.000000000E+00
 
[MO]
Sym=     1a  
Ene=     0.0000
Spin= Alpha
Occup=    0.00000
   1         0.70415625
   2         0.00121862
   3        -0.00007838
   4        -0.00087562
   5         0.00000000
   6        -0.00000000
   7         0.00446292
   8        -0.00000000
   9         0.00000000
  10        -0.00250224
  11        -0.00000000
  12         0.00000000
  13        -0.00137349
  14         0.00037946
  15        -0.00000000
  16         0.00000000
  17        -0.00000000
  18         0.00000000
  19        -0.00022875
  20        -0.00000000
  21         0.00000000
  22        -0.00000000
  23         0.00000000
  24        -0.00024305
  25         0.00000000
  26         0.00000000
  27         0.00000000
  28        -0.00000000
  29         0.00000000
  30         0.00000000
  31         0.71049621
  32         0.00128925
  33        -0.00010750
  34        -0.00085903
  35        -0.00000000
  36         0.00000000
  37        -0.00447966
  38         0.00000000
  39        -0.00000000
  40         0.00248021
  41         0.00000000
  42        -0.00000000
  43         0.00135647
  44         0.00038564
  45         0.00000000
  46         0.00000000
  47         0.00000000
  48        -0.00000000
  49        -0.00020990
  50        -0.00000000
  51         0.00000000
  52        -0.00000000
  53        -0.00000000
  54         0.00023454
  55        -0.00000000
  56        -0.00000000
  57         0.00000000
  58         0.00000000
  59        -0.00000000
  60         0.00000000
Sym=     2a  
Ene=     0.0000
Spin= Alpha
Occup=    0.00000
   1        -0.70964104
   2         0.00234420
   3        -0.00042058
   4        -0.00189562
   5        -0.00000000
   6         0.00000000
   7        -0.00339027
   8         0.00000000
   9        -0.00000000
  10         0.00352138
  11         0.00000000
  12        -0.00000000
  13         0.00049583
  14        -0.00027710
  15        -0.00000000
  16         0.00000000
  17         0.00000000
  18        -0.00000000
  19         0.00041594
  20         0.00000000
  21         0.00000000
  22         0.00000000
  23         0.00000000
  24        -0.00016335
  25        -0.00000000
  26         0.00000000
  27         0.00000000
  28        -0.00000000
  29         0.00000000
  30        -0.00000000
  31         0.70333646
  32        -0.00232723
  33         0.00040878
  34         0.00188500
  35        -0.00000000
  36         0.00000000
  37        -0.00335189
  38         0.00000000
  39        -0.00000000
  40         0.00349946
  41        -0.00000000
  42        -0.00000000
  43         0.00048778
  44         0.00027461
  45         0.00000000
  46        -0.00000000
  47         0.00000000
  48        -0.00000000
  49        -0.00041810
  50         0.00000000
  51        -0.00000000
  52        -0.00000000
  53         0.00000000
  54        -0.00016470
  55        -0.00000000
  56         0.00000000
  57         0.00000000
  58         0.00000000
  59        -0.00000000
  60         0.00000000
Sym=     3a  
Ene=     0.0000
Spin= Alpha
Occup=    0.00000
   1        -0.01502761
   2         0.62374515
   3        -0.00236442
   4        -0.12254638
   5        -0.00000000
   6         0.00000000
   7         0.28728173
   8         0.00000000
   9        -0.00000000
  10        -0.02242031
  11         0.00000000
  12        -0.00000000
  13        -0.07739064
  14         0.01634838
  15        -0.00000000
  16         0.00000000
  17        -0.00000000
  18        -0.00000000
  19         0.01899648
  20         0.00000000
  21         0.00000000
  22        -0.00000000
  23         0.00000000
  24         0.00678140
  25         0.00000000
  26        -0.00000000
  27         0.00000000
  28        -0.00000000
  29         0.00000000
  30         0.00000000
  31        -0.01501973
  32         0.62377145
  33        -0.00237335
  34        -0.12254318
  35         0.00000000
  36        -0.00000000
  37        -0.28727219
  38        -0.00000000
  39         0.00000000
  40         0.02240626
  41         0.00000000
  42        -0.00000000
  43         0.07738231
  44         0.01634852
  45         0.00000000
  46        -0.00000000
  47         0.00000000
  48         0.00000000
  49         0.01900272
  50         0.00000000
  51        -0.00000000
  52        -0.00000000
  53        -0.00000000
  54        -0.00678262
  55        -0.00000000
  56         0.00000000
  57         0.00000000
  58        -0.00000000
  59        -0.00000000
  60        -0.00000000
Sym=     4a  
Ene=     0.0000
Spin= Alpha
Occup=    0.00000
   1        -0.00527329
   2        -0.68062286
   3        -0.00246340
   4        -0.04237906
   5        -0.00000000
   6        -0.00000000
   7         0.29412164
   8        -0.00000000
   9         0.00000000
  10        -0.01304675
  11        -0.00000000
  12        -0.00000000
  13        -0.03483776
  14         0.00338998
  15        -0.00000000
  16        -0.00000000
  17         0.00000000
  18        -0.00000000
  19         0.00632500
  20        -0.00000000
  21        -0.00000000
  22         0.00000000
  23        -0.00000000
  24        -0.00048719
  25        -0.00000000
  26        -0.00000000
  27        -0.00000000
  28        -0.00000000
  29         0.00000000
  30         0.00000000
  31         0.00527805
  32         0.68063731
  33         0.00245769
  34         0.04237704
  35        -0.00000000
  36        -0.00000000
  37         0.29414233
  38        -0.00000000
  39         0.00000000
  40        -0.01304774
  41        -0.00000000
  42        -0.00000000
  43        -0.03483678
  44        -0.00339081
  45        -0.00000000
  46         0.00000000
  47        -0.00000000
  48         0.00000000
  49        -0.00632705
  50         0.00000000
  51         0.00000000
  52         0.00000000
  53        -0.00000000
  54        -0.00048685
  55         0.00000000
  56        -0.00000000
  57         0.00000000
  58         0.00000000
  59        -0.00000000
  60         0.00000000
Sym=     5a  
Ene=     0.0000
Spin= Alpha
Occup=    0.00000
   1        -0.00073113
   2         0.22804477
   3         0.00514858
   4         0.16078594
   5        -0.00000000
   6        -0.00000000
   7        -0.68559867
   8         0.00000000
   9         0.00000000
  10         0.03174843
  11        -0.00000000
  12         0.00000000
  13         0.07289421
  14        -0.01601731
  15        -0.00000000
  16         0.00000000
  17        -0.00000000
  18        -0.00000000
  19        -0.01882993
  20         0.00000000
  21        -0.00000000
  22        -0.00000000
  23        -0.00000000
  24        -0.00517614
  25         0.00000000
  26        -0.00000000
  27         0.00000000
  28         0.00000000
  29         0.00000000
  30         0.00000000
  31        -0.00072545
  32         0.22804346
  33         0.00514283
  34         0.16074742
  35         0.00000000
  36         0.00000000
  37         0.68558160
  38        -0.00000000
  39         0.00000000
  40        -0.03174860
  41         0.00000000
  42         0.00000000
  43        -0.07287455
  44        -0.01601697
  45        -0.00000000
  46         0.00000000
  47         0.00000000
  48         0.00000000
  49        -0.01882993
  50        -0.00000000
  51         0.00000000
  52        -0.00000000
  53         0.00000000
  54         0.00517546
  55        -0.00000000
  56        -0.00000000
  57         0.00000000
  58         0.00000000
  59         0.00000000
  60        -0.00000000
Sym=     6a  
Ene=     0.0000
Spin= Alpha
Occup=    0.00000
   1        -0.00000000
   2        -0.00000000
   3         0.00000000
   4        -0.00000000
   5        -0.00075370
   6         0.61619662
   7        -0.00000000
   8         0.00000298
   9        -0.00243854
  10        -0.00000000
  11         0.00001228
  12        -0.01004028
  13        -0.00000000
  14        -0.00000000
  15        -0.00001933
  16         0.01580727
  17         0.00000000
  18         0.00000000
  19        -0.00000000
  20        -0.00004693
  21         0.03836508
  22         0.00000000
  23         0.00000000
  24        -0.00000000
  25        -0.00000890
  26         0.00727572
  27        -0.00000000
  28        -0.00000000
  29        -0.00000000
  30        -0.00000011
  31        -0.00000000
  32         0.00000000
  33        -0.00000000
  34         0.00000000
  35        -0.00075370
  36         0.61620228
  37         0.00000000
  38         0.00000299
  39        -0.00244328
  40        -0.00000000
  41         0.00001228
  42        -0.01004103
  43        -0.00000000
  44        -0.00000000
  45         0.00001934
  46        -0.01580837
  47        -0.00000000
  48        -0.00000000
  49        -0.00000000
  50         0.00004692
  51        -0.03836412
  52        -0.00000000
  53        -0.00000000
  54         0.00000000
  55        -0.00000890
  56         0.00727537
  57         0.00000000
  58        -0.00000000
  59        -0.00000000
  60        -0.00000018
Sym=     7a  
Ene=     0.0000
Spin= Alpha
Occup=    0.00000
   1        -0.00000000
   2         0.00000000
   3         0.00000000
   4         0.00000000
   5        -0.61619662
   6        -0.00075370
   7        -0.00000000
   8         0.00243854
   9         0.00000298
  10         0.00000000
  11         0.01004028
  12         0.00001228
  13         0.00000000
  14        -0.00000000
  15        -0.01580727
  16        -0.00001933
  17        -0.00000000
  18         0.00000000
  19         0.00000000
  20        -0.03836508
  21        -0.00004693
  22        -0.00000000
  23         0.00000000
  24        -0.00000000
  25        -0.00727572
  26        -0.00000890
  27         0.00000000
  28        -0.00000000
  29        -0.00000011
  30         0.00000000
  31         0.00000000
  32        -0.00000000
  33        -0.00000000
  34        -0.00000000
  35        -0.61620228
  36        -0.00075370
  37        -0.00000000
  38         0.00244328
  39         0.00000299
  40         0.00000000
  41         0.01004103
  42         0.00001228
  43        -0.00000000
  44        -0.00000000
  45         0.01580837
  46         0.00001934
  47         0.00000000
  48        -0.00000000
  49        -0.00000000
  50         0.03836412
  51         0.00004692
  52         0.00000000
  53        -0.00000000
  54         0.00000000
  55        -0.00727537
  56        -0.00000890
  57         0.00000000
  58         0.00000000
  59        -0.00000018
  60         0.00000000
Sym=     8a  
Ene=     0.0000
Spin= Alpha
Occup=    0.00000
   1         0.00000000
   2         0.00000000
   3         0.00000000
   4        -0.00000000
   5        -0.55156267
   6         0.34977853
   7        -0.00000000
   8         0.01835227
   9        -0.01163826
  10        -0.00000000
  11        -0.32800786
  12         0.20800920
  13        -0.00000000
  14        -0.00000000
  15         0.00903282
  16        -0.00572824
  17        -0.00000000
  18        -0.00000000
  19        -0.00000000
  20         0.00169666
  21        -0.00107596
  22        -0.00000000
  23        -0.00000000
  24         0.00000000
  25         0.00098540
  26        -0.00062490
  27         0.00000000
  28         0.00000000
  29         0.00000004
  30         0.00000003
  31         0.00000000
  32         0.00000000
  33        -0.00000000
  34         0.00000000
  35         0.55156962
  36        -0.34978294
  37         0.00000000
  38        -0.01835712
  39         0.01164133
  40        -0.00000000
  41         0.32800508
  42        -0.20800743
  43        -0.00000000
  44        -0.00000000
  45         0.00903316
  46        -0.00572846
  47        -0.00000000
  48        -0.00000000
  49        -0.00000000
  50         0.00169809
  51        -0.00107686
  52        -0.00000000
  53        -0.00000000
  54        -0.00000000
  55        -0.00098535
  56         0.00062487
  57        -0.00000000
  58        -0.00000000
  59         0.00000003
  60         0.00000002
Sym=     9a  
Ene=     0.0000
Spin= Alpha
Occup=    0.00000
   1         0.00000000
   2        -0.00000000
   3        -0.00000000
   4        -0.00000000
   5        -0.34977853
   6        -0.55156267
   7         0.00000000
   8         0.01163826
   9         0.01835227
  10        -0.00000000
  11        -0.20800920
  12        -0.32800786
  13         0.00000000
  14         0.00000000
  15         0.00572824
  16         0.00903282
  17         0.00000000
  18        -0.00000000
  19         0.00000000
  20         0.00107596
  21         0.00169666
  22         0.00000000
  23        -0.00000000
  24        -0.00000000
  25         0.00062490
  26         0.00098540
  27        -0.00000000
  28         0.00000000
  29         0.00000003
  30        -0.00000004
  31        -0.00000000
  32        -0.00000000
  33        -0.00000000
  34        -0.00000000
  35         0.34978294
  36         0.55156962
  37        -0.00000000
  38        -0.01164133
  39        -0.01835712
  40         0.00000000
  41         0.20800743
  42         0.32800508
  43        -0.00000000
  44         0.00000000
  45         0.00572846
  46         0.00903316
  47         0.00000000
  48        -0.00000000
  49         0.00000000
  50         0.00107686
  51         0.00169809
  52         0.00000000
  53        -0.00000000
  54         0.00000000
  55        -0.00062487
  56        -0.00098535
  57         0.00000000
  58        -0.00000000
  59         0.00000002
  60        -0.00000003
Sym=    10a  
Ene=     0.0000
Spin= Alpha
Occup=    0.00000
   1         0.03872370
   2         0.47365713
   3        -0.04340182
   4         4.81189671
   5         0.00000000
   6         0.00000000
   7         0.04494766
   8         0.00000000
   9         0.00000000
  10         0.26654041
  11        -0.00000000
  12        -0.00000000
  13         3.11122250
  14        -0.02230928
  15        -0.00000000
  16        -0.00000000
  17         0.00000000
  18         0.00000000
  19         0.29366371
  20         0.00000000
  21         0.00000000
  22        -0.00000000
  23         0.00000000
  24         0.02735637
  25        -0.00000000
  26        -0.00000000
  27         0.00000000
  28        -0.00000000
  29         0.00000000
  30         0.00000000
  31        -0.03870770
  32        -0.47360951
  33         0.04339469
  34        -4.81190566
  35         0.00000000
  36         0.00000000
  37         0.04492185
  38         0.00000000
  39         0.00000000
  40         0.26650405
  41        -0.00000000
  42        -0.00000000
  43         3.11135174
  44         0.02231417
  45         0.00000000
  46        -0.00000000
  47        -0.00000000
  48        -0.00000000
  49        -0.29366954
  50        -0.00000000
  51        -0.00000000
  52         0.00000000
  53         0.00000000
  54         0.02735938
  55        -0.00000000
  56        -0.00000000
  57         0.00000000
  58        -0.00000000
  59        -0.00000000
  60        -0.00000000
Sym=    11a  
Ene=     0.0000
Spin= Alpha
Occup=    0.00000
   1         0.03284966
   2         0.02626568
   3         0.01779725
   4         0.30457207
   5         0.00000000
   6         0.00000000
   7         0.31094786
   8         0.00000000
   9         0.00000000
  10         0.32089356
  11        -0.00000000
  12        -0.00000000
  13        -1.24783630
  14         0.03981297
  15         0.00000000
  16         0.00000000
  17        -0.00000000
  18        -0.00000000
  19        -0.07328465
  20         0.00000000
  21         0.00000000
  22         0.00000000
  23         0.00000000
  24        -0.01862798
  25        -0.00000000
  26        -0.00000000
  27         0.00000000
  28         0.00000000
  29         0.00000000
  30        -0.00000000
  31         0.03285019
  32         0.02632291
  33         0.01780688
  34         0.30470159
  35         0.00000000
  36         0.00000000
  37        -0.31096260
  38         0.00000000
  39         0.00000000
  40        -0.32085204
  41        -0.00000000
  42        -0.00000000
  43         1.24767341
  44         0.03980944
  45        -0.00000000
  46         0.00000000
  47         0.00000000
  48        -0.00000000
  49        -0.07329668
  50        -0.00000000
  51        -0.00000000
  52        -0.00000000
  53         0.00000000
  54         0.01863131
  55         0.00000000
  56        -0.00000000
  57         0.00000000
  58         0.00000000
  59        -0.00000000
  60        -0.00000000
Sym=    12a  
Ene=     0.0000
Spin= Alpha
Occup=    0.00000
   1         0.00000000
   2        -0.00000000
   3        -0.00000000
   4         0.00000000
   5        -0.28347157
   6        -0.27572033
   7         0.00000000
   8        -0.24880060
   9        -0.24199740
  10         0.00000000
  11         0.60500032
  12         0.58845720
  13         0.00000000
  14         0.00000000
  15        -0.00738913
  16        -0.00718708
  17         0.00000000
  18        -0.00000000
  19         0.00000000
  20        -0.05815865
  21        -0.05656836
  22        -0.00000000
  23         0.00000000
  24         0.00000000
  25         0.00045080
  26         0.00043848
  27        -0.00000000
  28         0.00000000
  29        -0.00000022
  30         0.00000022
  31         0.00000000
  32         0.00000000
  33         0.00000000
  34        -0.00000000
  35        -0.28348906
  36        -0.27573734
  37        -0.00000000
  38        -0.24880551
  39        -0.24200218
  40         0.00000000
  41         0.60504282
  42         0.58849854
  43         0.00000000
  44         0.00000000
  45         0.00739112
  46         0.00718902
  47        -0.00000000
  48         0.00000000
  49        -0.00000000
  50         0.05815475
  51         0.05656457
  52         0.00000000
  53        -0.00000000
  54         0.00000000
  55         0.00045186
  56         0.00043950
  57         0.00000000
  58         0.00000000
  59        -0.00000020
  60         0.00000020
Sym=    13a  
Ene=     0.0000
Spin= Alpha
Occup=    0.00000
   1         0.00000000
   2         0.00000000
   3        -0.00000000
   4         0.00000000
   5         0.27572033
   6        -0.28347157
   7        -0.00000000
   8         0.24199740
   9        -0.24880060
  10         0.00000000
  11        -0.58845720
  12         0.60500032
  13         0.00000000
  14         0.00000000
  15         0.00718708
  16        -0.00738913
  17         0.00000000
  18         0.00000000
  19         0.00000000
  20         0.05656836
  21        -0.05815865
  22        -0.00000000
  23        -0.00000000
  24         0.00000000
  25        -0.00043848
  26         0.00045080
  27        -0.00000000
  28        -0.00000000
  29         0.00000022
  30         0.00000022
  31         0.00000000
  32         0.00000000
  33        -0.00000000
  34        -0.00000000
  35         0.27573734
  36        -0.28348906
  37         0.00000000
  38         0.24200218
  39        -0.24880551
  40         0.00000000
  41        -0.58849854
  42         0.60504282
  43         0.00000000
  44        -0.00000000
  45        -0.00718902
  46         0.00739112
  47        -0.00000000
  48        -0.00000000
  49        -0.00000000
  50        -0.05656457
  51         0.05815475
  52         0.00000000
  53         0.00000000
  54         0.00000000
  55        -0.00043950
  56         0.00045186
  57        -0.00000000
  58         0.00000000
  59         0.00000020
  60         0.00000020
Sym=    14a  
Ene=     0.0000
Spin= Alpha
Occup=    0.00000
   1         0.32754210
   2         1.57463565
   3        -0.09531466
   4        -1.53095314
   5         0.00000000
   6         0.00000000
   7        -0.11278537
   8         0.00000000
   9         0.00000000
  10        -0.03366060
  11        -0.00000000
  12        -0.00000000
  13        -0.04115991
  14         0.00775236
  15         0.00000000
  16         0.00000000
  17        -0.00000000
  18         0.00000000
  19         0.14134177
  20        -0.00000000
  21        -0.00000000
  22         0.00000000
  23         0.00000000
  24        -0.00119099
  25        -0.00000000
  26        -0.00000000
  27        -0.00000000
  28         0.00000000
  29        -0.00000000
  30         0.00000000
  31         0.32742929
  32         1.57432836
  33        -0.09520178
  34        -1.53088021
  35        -0.00000000
  36        -0.00000000
  37         0.11272351
  38        -0.00000000
  39        -0.00000000
  40         0.03382019
  41         0.00000000
  42         0.00000000
  43         0.04120778
  44         0.00774252
  45         0.00000000
  46         0.00000000
  47        -0.00000000
  48        -0.00000000
  49         0.14124949
  50        -0.00000000
  51        -0.00000000
  52         0.00000000
  53        -0.00000000
  54         0.00121135
  55         0.00000000
  56         0.00000000
  57        -0.00000000
  58         0.00000000
  59        -0.00000000
  60        -0.00000000
Sym=    15a  
Ene=     0.0000
Spin= Alpha
Occup=    0.00000
   1        -0.00000000
   2        -0.00000000
   3         0.00000000
   4        -0.00000000
   5         0.54784948
   6        -0.00938695
   7         0.00000000
   8         0.30767931
   9        -0.00527183
  10        -0.00000000
  11        -1.60317069
  12         0.02746900
  13        -0.00000000
  14        -0.00000000
  15         0.01685334
  16        -0.00028877
  17         0.00000000
  18         0.00000000
  19        -0.00000000
  20        -0.17751264
  21         0.00304153
  22         0.00000000
  23         0.00000000
  24        -0.00000000
  25        -0.02695395
  26         0.00046183
  27        -0.00000000
  28        -0.00000000
  29        -0.00000003
  30        -0.00000000
  31        -0.00000000
  32        -0.00000000
  33         0.00000000
  34         0.00000000
  35        -0.54784090
  36         0.00938680
  37         0.00000000
  38        -0.30766059
  39         0.00527151
  40        -0.00000000
  41         1.60314069
  42        -0.02746848
  43        -0.00000000
  44        -0.00000000
  45         0.01685285
  46        -0.00028876
  47         0.00000000
  48         0.00000000
  49         0.00000000
  50        -0.17751459
  51         0.00304156
  52         0.00000000
  53         0.00000000
  54        -0.00000000
  55         0.02695419
  56        -0.00046184
  57         0.00000000
  58        -0.00000000
  59         0.00000005
  60         0.00000000
Sym=    16a  
Ene=     0.0000
Spin= Alpha
Occup=    0.00000
   1        -0.00000000
   2        -0.00000000
   3         0.00000000
   4         0.00000000
   5         0.00938695
   6         0.54784948
   7         0.00000000
   8         0.00527183
   9         0.30767931
  10         0.00000000
  11        -0.02746900
  12        -1.60317069
  13         0.00000000
  14        -0.00000000
  15         0.00028877
  16         0.01685334
  17        -0.00000000
  18         0.00000000
  19        -0.00000000
  20        -0.00304153
  21        -0.17751264
  22        -0.00000000
  23         0.00000000
  24         0.00000000
  25        -0.00046183
  26        -0.02695395
  27         0.00000000
  28        -0.00000000
  29        -0.00000000
  30         0.00000003
  31        -0.00000000
  32        -0.00000000
  33         0.00000000
  34         0.00000000
  35        -0.00938680
  36        -0.54784090
  37        -0.00000000
  38        -0.00527151
  39        -0.30766059
  40        -0.00000000
  41         0.02746848
  42         1.60314069
  43         0.00000000
  44        -0.00000000
  45         0.00028876
  46         0.01685285
  47        -0.00000000
  48         0.00000000
  49        -0.00000000
  50        -0.00304156
  51        -0.17751459
  52        -0.00000000
  53         0.00000000
  54         0.00000000
  55         0.00046184
  56         0.02695419
  57         0.00000000
  58         0.00000000
  59         0.00000000
  60        -0.00000005
Sym=    17a  
Ene=     0.0000
Spin= Alpha
Occup=    0.00000
   1        -0.08600618
   2        -0.13176798
   3         0.02704495
   4         0.38017054
   5        -0.00000000
   6         0.00000000
   7         0.82370447
   8        -0.00000000
   9        -0.00000000
  10         0.20218444
  11         0.00000000
  12        -0.00000000
  13        -0.60901307
  14        -0.01210733
  15         0.00000000
  16         0.00000000
  17         0.00000000
  18         0.00000000
  19        -0.23873967
  20         0.00000000
  21        -0.00000000
  22        -0.00000000
  23        -0.00000000
  24        -0.00157028
  25        -0.00000000
  26        -0.00000000
  27         0.00000000
  28        -0.00000000
  29        -0.00000000
  30        -0.00000000
  31         0.08599354
  32         0.13176602
  33        -0.02702143
  34        -0.38019303
  35        -0.00000000
  36         0.00000000
  37         0.82371555
  38        -0.00000000
  39         0.00000000
  40         0.20219448
  41         0.00000000
  42         0.00000000
  43        -0.60903673
  44         0.01210711
  45        -0.00000000
  46        -0.00000000
  47        -0.00000000
  48        -0.00000000
  49         0.23876158
  50         0.00000000
  51        -0.00000000
  52         0.00000000
  53         0.00000000
  54        -0.00157166
  55        -0.00000000
  56        -0.00000000
  57        -0.00000000
  58        -0.00000000
  59        -0.00000000
  60        -0.00000000
Sym=    18a  
Ene=     0.0000
Spin= Alpha
Occup=    0.00000
   1        -0.18996784
   2        -1.19688243
   3        -0.12212298
   4         9.94496580
   5         0.00000000
   6         0.00000000
   7        -0.45131653
   8         0.00000000
   9         0.00000000
  10         1.35698783
  11        -0.00000000
  12        -0.00000000
  13         4.25209855
  14         0.03216787
  15         0.00000000
  16         0.00000000
  17         0.00000000
  18         0.00000000
  19         0.91539835
  20        -0.00000000
  21        -0.00000000
  22         0.00000000
  23        -0.00000000
  24         0.13163734
  25         0.00000000
  26         0.00000000
  27         0.00000000
  28         0.00000000
  29         0.00000000
  30        -0.00000000
  31         0.18993761
  32         1.19681635
  33         0.12215780
  34        -9.94493773
  35         0.00000000
  36         0.00000000
  37        -0.45130018
  38         0.00000000
  39         0.00000000
  40         1.35699389
  41         0.00000000
  42        -0.00000000
  43         4.25204696
  44        -0.03217327
  45        -0.00000000
  46        -0.00000000
  47        -0.00000000
  48         0.00000000
  49        -0.91538388
  50         0.00000000
  51         0.00000000
  52         0.00000000
  53        -0.00000000
  54         0.13163728
  55         0.00000000
  56         0.00000000
  57        -0.00000000
  58         0.00000000
  59        -0.00000000
  60         0.00000000
Sym=    19a  
Ene=     0.0000
Spin= Alpha
Occup=    0.00000
   1         0.00000000
   2         0.00000000
   3         0.00000000
   4        -0.00000000
   5        -0.00000000
   6         0.00000000
   7         0.00000000
   8         0.00000000