   This run of MOLCAS is using the pymolcas driver

                             OPE
                             OPE          NMOL  CASOP  ENMOLC A   SO
                 OPE        NMOLC        AS  OP EN  MO LC     AS  OP
                OPENM       OL CA        SO  PE NM  OL CA     SOP EN
                OP EN      MO   LC       AS  OP ENMOL  CASO   PENMOL
                OP  EN     MO   LC       AS  OP EN     MO     LC ASO
               OP   E  NMOL  C  AS       OP  EN MO     LC     AS  OP
               OP  E   NMO   LC AS        OPEN  MO     LCASOP EN   M
               O  PEN   MO  LCA  SO
            OPE   NMO   L   CAS    OP
        OPENMOL  CASOP     ENMOL   CASOPE
     OPENMOLCA   SOPENMOLCASOPEN   MOLCASOPE
    OPENMOLCAS   OP           EN   MOL    CAS
    OPENMOLCAS       OP  ENM        O     LCA
    OPENMOLCAS    OPEN  MOLCASO     P  E  NMO
    OPENMOLCAS     OP               E  N  MOL
    OPENMOLCA   SO           PENM   O  L  CAS    OPEN    MO    LCAS
    OPENMOLCA   SOP           ENM   O  L  CAS   OP  EN  MOLC  AS   O
    OPENMOLCA   SOPE           NM      O  LCA   S      OP  EN MO
    OPENMOLC                AS         O  PEN   M      OL  CA  SOPE
    OPENMO        LCASOPE  NMOL        C  ASO   P      ENMOLC     AS
    OPE     NMO      LCA  SO     P     E   NM   OL  CA SO  PE N   MO
          OPENMOLCA            SOPE   NMO        LCAS  O    P  ENMO
     OPENMOLCASOPENMOLCASOPENMOLCASOPENMOLCA
        OPENMOLCASOPENMOLCASOPENMOLCASOPE
            OPENMOLCASOPENMOLCASOPENM
               OPENMOLCASOPENMOLCA        version: o822a959167d23c ?
                   OPENMOLCASO
                       OPE                tag:

 OpenMolcas is free software; you can redistribute it and/or modify it
 under the terms of the GNU Lesser General Public License version 2.1.
 OpenMolcas is distributed in the hope that it will be useful, but it
 is provided "as is" and without any express or implied warranties.
 For more details see the full text of the license in the file
 LICENSE or in <http://www.gnu.org/licenses/>.

                 Copyright (C) The OpenMolcas Authors
           For the author list and the recommended citation,
                   consult the file CONTRIBUTORS.md

           *************************************************
           * pymolcas version py2.28                       *
           *   build c4a6d18ded8cb6cad61d2372a9abd97c      *
           *   (after the EMIL interpreter by V. Veryazov) *
           *************************************************

configuration info
------------------
Host name: mgt (Linux)
C Compiler ID: GNU
C flags: -std=gnu99
Fortran Compiler ID: GNU
Fortran flags: -fno-aggressive-loop-optimizations -cpp -fdefault-integer-8 -fmax-stack-var-size=1048576
Definitions: _MOLCAS_;_I8_;_LINUX_
Parallel: OFF (GA=OFF)


   -------------------------------------------------------------------------------------------------------
  |
  |           Project: n2
  |    Submitted from: /public/home/xzzeng/work/HQC/N2/cc-pvtz/NO/PES/entropy/1.6/results/work_dir/n2/dmrg
  |      Scratch area: /public/home/xzzeng/work/HQC/N2/cc-pvtz/NO/PES/entropy/1.6/results/scratch
  |   Save outputs to: /public/home/xzzeng/work/HQC/N2/cc-pvtz/NO/PES/entropy/1.6/results/work_dir/n2/dmrg
  |            Molcas: /public/home/xzzeng/soft/OpenMolcas/build
  |
  | Scratch area is NOT empty
  |
  |    MOLCAS_DRIVER = /public/home/xzzeng/soft/OpenMolcas/build/pymolcas
  |    MOLCAS_NPROCS = 1
  |    MOLCAS_SOURCE = /public/home/xzzeng/soft/OpenMolcas
  | MOLCAS_STRUCTURE = 0
  |
   -------------------------------------------------------------------------------------------------------

++ ---------   Input file   ---------

&DMRGSCF
ActiveSpaceOptimizer = QCMaquis
DMRGSettings
  nsweeps = 5
  max_bond_dimension = 300
EndDMRGSettings
OOptimizationSettings
  SPIN    = 1
  NACTEL  = 10
  FILEORB = /public/home/xzzeng/work/HQC/N2/cc-pvtz/NO/PES/entropy/1.6/results/work_dir/n2/dmrg/n2.scf.h5_sel
  TYPEINDEX
  CIONLY
EndOOptimizationSettings

-- ----------------------------------

*** symbolic link created: INPORB -> n2.ScfOrb
--- Start Module: dmrgscf at Tue Apr  9 00:42:10 2024 ---

()()()()()()()()()()()()()()()()()()()()()()()()()()()()()()()()()()()()()()()()()()()()()()()()()()

                                              &DMRGSCF

                                   only a single process is used
                       available to each process: 12 GB of memory, 1 thread?
                                             pid: 60964
()()()()()()()()()()()()()()()()()()()()()()()()()()()()()()()()()()()()()()()()()()()()()()()()()()


      DMRGSCF: active space solver is set to qcmaquis
      -------                                --------


      Header of the ONEINT file:
      --------------------------
      
      Integrals generated by Gateway/Seward, Tue Apr  9 00:42:08 2024


      OrdInt status: non-squared


      Cartesian coordinates in Angstrom:
      -----------------------------------------------------
      No.  Label        X            Y            Z        
      -----------------------------------------------------
       1   N1         0.00000000   0.00000000   0.00000000
       2   N2         0.00000000   0.00000000   1.60000000
      -----------------------------------------------------
      Nuclear repulsion energy =   16.20605208

++    Wave function specifications:
      -----------------------------

      Number of closed shell electrons           4
      Number of electrons in active shells      10
      Max number of holes in RAS1 space          0
      Max nr of electrons in RAS3 space          0
      Number of inactive orbitals                2
      Number of active orbitals                  8
      Number of secondary orbitals              50
      Spin quantum number                      0.0
      State symmetry                             1
--

++    Orbital specifications:
      -----------------------

      Symmetry species                           1
                                                 a
      Frozen orbitals                            0
      Inactive orbitals                          2
      Active orbitals                            8
      RAS1 orbitals                              0
      RAS2 orbitals                              8
      RAS3 orbitals                              0
      Secondary orbitals                        50
      Deleted orbitals                           0
      Number of basis functions                 60
--

++    DMRG specifications:
      ----------------------------

      Number of renormalized states              300
      (Max) number of sweeps                     5
      Convergence threshold (sweep tolerance)    0.100E-07
      Jacobi-Davidson threshold                  0.100E-10
      SVD truncation threshold (initial)         1e-50
      SVD truncation threshold (final)           0.100E-10
      Number of root(s) required                 1
      Root chosen for geometry opt.              1
      DMRG root used                             1
         
--

++    Optimization specifications:
      ----------------------------

      RASSCF algorithm: LK Cholesky
      Maximum number of macro iterations       200
      Maximum number of SX iterations          100
      Threshold for RASSCF energy            1.000E-08
      Threshold for max MO rotation          1.000E-01
      Threshold for max BLB element          1.000E-04
      Level shift parameter                  5.000E-01
      Make Quasi-Newton update
--

      The MO-coefficients are taken from the file:
      /public/home/xzzeng/work/HQC/N2/cc-pvtz/NO/PES/entropy/1.6/results/work_dir/n2/dmrg/n2.scf.h5_sel                                                                                                                                                               

      Total molecular charge    0.00

      ************************************************************************************************************************
      *                                                                                                                      *
      *                                            Wave function control section                                             *
      *                                                                                                                      *
      ************************************************************************************************************************


                                         DMRGCI only, no orbital optimization will be done.
                                         --------------------------------------------------

                                             Please cite for the QCMaquis-Molcas driver:

                                    Freitag L.; Keller S.; Knecht S.; Lindh R.; Ma Y.; 
                                    Stein C. J. and Reiher M., in preparation. (2018).
                                    ---------------------------------------------------------------

                                             Please cite for the QCMaquis DMRG software:

                                    S. Keller, M. Dolfi, M. Troyer, M. Reiher,
                                    J. Chem. Phys. 143, 244118 (2015)
                                    ---------------------------------------------------------------



      DMRGCI energy              :    -108.8570864635
      Total time spent (hh:mm:ss):            0:00:05


      Natural orbitals and occupation numbers for root  1
      sym 1:   1.994197   1.989588   1.939229   1.766514   1.766514   0.239675   0.239675   0.064609

      ************************************************************************************************************************
      *                                                                                                                      *
      *                                                    Final results                                                     *
      *                                                                                                                      *
      ************************************************************************************************************************


++    Wave function specifications:
      -----------------------------

      Number of closed shell electrons           4
      Number of electrons in active shells      10
      Max number of holes in RAS1 space          0
      Max nr of electrons in RAS3 space          0
      Number of inactive orbitals                2
      Number of active orbitals                  8
      Number of secondary orbitals              50
      Spin quantum number                      0.0
      State symmetry                             1
--

++    Orbital specifications:
      -----------------------

      Symmetry species                           1
                                                 a
      Frozen orbitals                            0
      Inactive orbitals                          2
      Active orbitals                            8
      RAS1 orbitals                              0
      RAS2 orbitals                              8
      RAS3 orbitals                              0
      Secondary orbitals                        50
      Deleted orbitals                           0
      Number of basis functions                 60
--

++    DMRG specifications:
      ----------------------------

      Number of renormalized states              300
      (Max) number of sweeps                     5
      Convergence threshold (sweep tolerance)    0.100E-07
      Jacobi-Davidson threshold                  0.100E-10
      SVD truncation threshold (initial)         1e-50
      SVD truncation threshold (final)           0.100E-10
      Number of root(s) required                 1
      DMRG root used                             1
      highest root included in the DMRG          1
      Root passed to geometry opt.               1
--

++    Final optimization conditions:
      ------------------------------

      Average CI energy                            -108.85708646
--


      Final state energy(ies):
      ------------------------

::    RASSCF root number  1 Total energy:   -108.85708646

++    Molecular orbitals:
      -------------------

      Pseudonatural active orbitals and approximate occupation numbers




      Molecular orbitals for symmetry species 1: a  


      Orbital                 1         2         3         4         5         6         7         8         9        10
      Energy             0.0000    0.0000    0.0000    0.0000    0.0000    0.0000    0.0000    0.0000    0.0000    0.0000
      Occ. No.           0.0000    0.0000    0.0000    0.0000    0.0000    0.0000    0.0000    0.0000    0.0000    0.0000

     1 N1     1s         0.7026   -0.7124   -0.0017   -0.0039   -0.0017   -0.0000    0.0000   -0.0000   -0.0000    0.0011
     2 N1     2s         0.0006    0.0010    0.6661   -0.7336    0.1835   -0.0000    0.0000    0.0000    0.0000    0.3568
     3 N1     *s        -0.0011    0.0004    0.0011   -0.0087    0.0102    0.0000   -0.0000    0.0000    0.0000    0.0007
     4 N1     *s        -0.0004   -0.0001   -0.0654    0.0088    0.0829   -0.0000    0.0000    0.0000   -0.0000    0.7134
     5 N1     2px        0.0000    0.0000   -0.0000    0.0000    0.0000   -0.0667   -0.6063   -0.5855    0.3482    0.0000
     6 N1     *px       -0.0000    0.0000    0.0000   -0.0000    0.0000    0.0006    0.0051    0.0222   -0.0132   -0.0000
     7 N1     *px        0.0000   -0.0000   -0.0000    0.0000   -0.0000   -0.0054   -0.0495   -0.1568    0.0933    0.0000
     8 N1     2py        0.0000   -0.0000   -0.0000   -0.0000    0.0000    0.6063   -0.0667   -0.3482   -0.5855    0.0000
     9 N1     *py       -0.0000    0.0000    0.0000   -0.0000    0.0000   -0.0051    0.0006    0.0132    0.0222   -0.0000
    10 N1     *py       -0.0000   -0.0000   -0.0000   -0.0000   -0.0000    0.0495   -0.0054   -0.0933   -0.1568    0.0000
    11 N1     2pz        0.0030   -0.0036    0.1247    0.1811   -0.6530   -0.0000    0.0000   -0.0000   -0.0000    0.6573
    12 N1     *pz       -0.0019    0.0035    0.0077   -0.0054    0.0003    0.0000   -0.0000    0.0000    0.0000   -0.0296
    13 N1     *pz       -0.0007    0.0011   -0.0216   -0.0217    0.0244    0.0000   -0.0000   -0.0000   -0.0000    0.7593
    14 N1     *d2-      -0.0000   -0.0000    0.0000   -0.0000    0.0000    0.0000   -0.0000    0.0000    0.0000    0.0000
    15 N1     *d2-       0.0000    0.0000   -0.0000    0.0000   -0.0000   -0.0000    0.0000    0.0000    0.0000   -0.0000
    16 N1     *d1-       0.0000    0.0000    0.0000   -0.0000   -0.0000    0.0063   -0.0007    0.0019    0.0031    0.0000
    17 N1     *d1-      -0.0000   -0.0000    0.0000    0.0000    0.0000    0.0311   -0.0034    0.0055    0.0093    0.0000
    18 N1     *d0        0.0001   -0.0001    0.0058    0.0030   -0.0085    0.0000    0.0000   -0.0000    0.0000   -0.0177
    19 N1     *d0        0.0002    0.0008    0.0151    0.0043   -0.0243    0.0000   -0.0000   -0.0000    0.0000    0.0241
    20 N1     *d1+       0.0000    0.0000    0.0000    0.0000   -0.0000   -0.0007   -0.0063    0.0031   -0.0019    0.0000
    21 N1     *d1+       0.0000    0.0000    0.0000    0.0000    0.0000   -0.0034   -0.0311    0.0093   -0.0055   -0.0000
    22 N1     *d2+      -0.0000    0.0000   -0.0000    0.0000   -0.0000   -0.0000   -0.0000    0.0000   -0.0000   -0.0000
    23 N1     *d2+       0.0000   -0.0000   -0.0000    0.0000   -0.0000    0.0000    0.0000    0.0000   -0.0000   -0.0000
    24 N1     *f3-      -0.0000    0.0000   -0.0000   -0.0000    0.0000    0.0000   -0.0000   -0.0000   -0.0000   -0.0000
    25 N1     *f2-      -0.0000    0.0000    0.0000   -0.0000   -0.0000    0.0000   -0.0000   -0.0000   -0.0000   -0.0000
    26 N1     *f1-       0.0000   -0.0000    0.0000   -0.0000   -0.0000    0.0042   -0.0005    0.0011    0.0018    0.0000
    27 N1     *f0        0.0000    0.0003    0.0030    0.0002   -0.0027   -0.0000   -0.0000    0.0000   -0.0000    0.0025
    28 N1     *f1+       0.0000   -0.0000    0.0000    0.0000   -0.0000   -0.0005   -0.0042    0.0018   -0.0011    0.0000
    29 N1     *f2+      -0.0000   -0.0000   -0.0000    0.0000   -0.0000   -0.0000   -0.0000   -0.0000    0.0000   -0.0000
    30 N1     *f3+       0.0000    0.0000    0.0000   -0.0000    0.0000    0.0000    0.0000    0.0000   -0.0000   -0.0000
    31 N2     1s         0.7129    0.7021   -0.0017    0.0039   -0.0017    0.0000   -0.0000   -0.0000   -0.0000   -0.0011
    32 N2     2s         0.0006   -0.0010    0.6661    0.7336    0.1835    0.0000    0.0000   -0.0000    0.0000   -0.3569
    33 N2     *s        -0.0012   -0.0003    0.0011    0.0087    0.0102   -0.0000    0.0000    0.0000    0.0000   -0.0007
    34 N2     *s        -0.0004    0.0001   -0.0654   -0.0088    0.0828   -0.0000    0.0000    0.0000    0.0000   -0.7134
    35 N2     2px        0.0000    0.0000    0.0000    0.0000   -0.0000   -0.0667   -0.6063    0.5855   -0.3482    0.0000
    36 N2     *px        0.0000   -0.0000   -0.0000   -0.0000   -0.0000    0.0006    0.0051   -0.0222    0.0132   -0.0000
    37 N2     *px       -0.0000    0.0000    0.0000    0.0000    0.0000   -0.0054   -0.0495    0.1568   -0.0933    0.0000
    38 N2     2py       -0.0000   -0.0000    0.0000   -0.0000   -0.0000    0.6063   -0.0667    0.3482    0.5855    0.0000
    39 N2     *py        0.0000    0.0000   -0.0000   -0.0000   -0.0000   -0.0051    0.0006   -0.0132   -0.0222   -0.0000
    40 N2     *py        0.0000    0.0000    0.0000   -0.0000    0.0000    0.0495   -0.0054    0.0933    0.1568    0.0000
    41 N2     2pz       -0.0031   -0.0035   -0.1247    0.1811    0.6530   -0.0000    0.0000    0.0000    0.0000    0.6573
    42 N2     *pz        0.0020    0.0035   -0.0077   -0.0054   -0.0003    0.0000   -0.0000   -0.0000    0.0000   -0.0296
    43 N2     *pz        0.0007    0.0011    0.0216   -0.0217   -0.0243   -0.0000   -0.0000    0.0000   -0.0000    0.7593
    44 N2     *d2-      -0.0000    0.0000   -0.0000   -0.0000   -0.0000    0.0000    0.0000    0.0000    0.0000    0.0000
    45 N2     *d2-       0.0000   -0.0000   -0.0000    0.0000   -0.0000    0.0000   -0.0000    0.0000    0.0000   -0.0000
    46 N2     *d1-       0.0000    0.0000    0.0000    0.0000   -0.0000   -0.0063    0.0007    0.0019    0.0031   -0.0000
    47 N2     *d1-      -0.0000    0.0000   -0.0000   -0.0000    0.0000   -0.0311    0.0034    0.0055    0.0093   -0.0000
    48 N2     *d0        0.0001    0.0001    0.0058   -0.0030   -0.0085   -0.0000   -0.0000   -0.0000    0.0000    0.0177
    49 N2     *d0        0.0002   -0.0008    0.0151   -0.0043   -0.0243   -0.0000    0.0000   -0.0000    0.0000   -0.0241
    50 N2     *d1+      -0.0000   -0.0000   -0.0000   -0.0000   -0.0000    0.0007    0.0063    0.0031   -0.0019   -0.0000
    51 N2     *d1+       0.0000   -0.0000   -0.0000   -0.0000    0.0000    0.0034    0.0311    0.0093   -0.0055    0.0000
    52 N2     *d2+       0.0000    0.0000    0.0000    0.0000   -0.0000    0.0000   -0.0000    0.0000   -0.0000   -0.0000
    53 N2     *d2+      -0.0000   -0.0000    0.0000    0.0000    0.0000   -0.0000   -0.0000    0.0000   -0.0000   -0.0000
    54 N2     *f3-       0.0000    0.0000    0.0000   -0.0000    0.0000   -0.0000    0.0000   -0.0000   -0.0000   -0.0000
    55 N2     *f2-      -0.0000   -0.0000    0.0000   -0.0000    0.0000    0.0000    0.0000    0.0000    0.0000    0.0000
    56 N2     *f1-       0.0000    0.0000    0.0000   -0.0000    0.0000    0.0042   -0.0005   -0.0011   -0.0018    0.0000
    57 N2     *f0       -0.0000    0.0003   -0.0030    0.0002    0.0027   -0.0000   -0.0000   -0.0000    0.0000    0.0025
    58 N2     *f1+      -0.0000   -0.0000    0.0000    0.0000    0.0000   -0.0005   -0.0042   -0.0018    0.0011    0.0000
    59 N2     *f2+      -0.0000    0.0000   -0.0000   -0.0000    0.0000   -0.0000   -0.0000    0.0000   -0.0000    0.0000
    60 N2     *f3+      -0.0000   -0.0000   -0.0000    0.0000    0.0000   -0.0000   -0.0000    0.0000   -0.0000    0.0000


      Orbital                11        12        13        14        15        16        17        18        19        20
      Energy             0.0000    0.0000    0.0000    0.0000    0.0000    0.0000    0.0000    0.0000    0.0000    0.0000
      Occ. No.           0.0000    0.0000    0.0000    0.0000    0.0000    0.0000    0.0000    0.0000    0.0000    0.0000

     1 N1     1s         0.0204    0.0000   -0.0000   -0.1589    0.3004    0.0000    0.0000   -0.4463   -0.0000   -0.0000
     2 N1     2s         0.1647   -0.0000   -0.0000   -0.8420    1.4063    0.0000    0.0000   -2.0119   -0.0000   -0.0000
     3 N1     *s        -0.0395   -0.0000    0.0000    0.0443   -0.0860   -0.0000   -0.0000    0.0339    0.0000    0.0000
     4 N1     *s         1.2065    0.0000   -0.0000    1.0638   -1.2806   -0.0000   -0.0000    4.2907    0.0000    0.0000
     5 N1     2px        0.0000   -0.1624    0.4531   -0.0000   -0.0000    0.4834    0.0587   -0.0000    0.1956   -0.0051
     6 N1     *px        0.0000   -0.1208    0.3372   -0.0000   -0.0000    0.3620    0.0440   -0.0000   -0.0002    0.0000
     7 N1     *px       -0.0000    0.3019   -0.8423    0.0000    0.0000   -1.3099   -0.1590    0.0000   -0.0453    0.0012
     8 N1     2py        0.0000   -0.4531   -0.1624    0.0000   -0.0000   -0.0587    0.4834    0.0000    0.0051    0.1956
     9 N1     *py        0.0000   -0.3372   -0.1208    0.0000   -0.0000   -0.0440    0.3620   -0.0000   -0.0000   -0.0002
    10 N1     *py       -0.0000    0.8423    0.3019    0.0000    0.0000    0.1590   -1.3099    0.0000   -0.0012   -0.0453
    11 N1     2pz       -0.6152   -0.0000    0.0000    0.2991    0.1041    0.0000    0.0000   -0.1547   -0.0000    0.0000
    12 N1     *pz       -0.1639   -0.0000    0.0000    0.3502    0.2224    0.0000    0.0000    0.0492    0.0000    0.0000
    13 N1     *pz        1.9302    0.0000   -0.0000   -0.9091   -0.4920   -0.0000   -0.0000    1.8623    0.0000    0.0000
    14 N1     *d2-       0.0000    0.0000    0.0000    0.0000    0.0000    0.0000   -0.0000    0.0000    0.0000    0.0000
    15 N1     *d2-      -0.0000    0.0000    0.0000   -0.0000   -0.0000    0.0000    0.0000    0.0000   -0.0000   -0.0000
    16 N1     *d1-       0.0000    0.0010    0.0003   -0.0000   -0.0000   -0.0014    0.0113   -0.0000   -0.0001   -0.0042
    17 N1     *d1-       0.0000   -0.0664   -0.0238    0.0000    0.0000    0.0027   -0.0226    0.0000   -0.0156   -0.6037
    18 N1     *d0       -0.0264   -0.0000    0.0000    0.0167    0.0076    0.0000    0.0000   -0.0255   -0.0000   -0.0000
    19 N1     *d0        0.2685    0.0000   -0.0000   -0.0019    0.1765    0.0000    0.0000    0.0829   -0.0000   -0.0000
    20 N1     *d1+       0.0000    0.0003   -0.0010   -0.0000   -0.0000    0.0113    0.0014   -0.0000   -0.0042    0.0001
    21 N1     *d1+       0.0000   -0.0238    0.0664    0.0000    0.0000   -0.0226   -0.0027    0.0000   -0.6037    0.0156
    22 N1     *d2+       0.0000    0.0000   -0.0000   -0.0000   -0.0000   -0.0000    0.0000    0.0000    0.0000   -0.0000
    23 N1     *d2+       0.0000    0.0000   -0.0000   -0.0000    0.0000    0.0000   -0.0000    0.0000   -0.0000    0.0000
    24 N1     *f3-       0.0000    0.0000    0.0000    0.0000    0.0000   -0.0000    0.0000    0.0000    0.0000    0.0000
    25 N1     *f2-       0.0000   -0.0000    0.0000   -0.0000   -0.0000    0.0000    0.0000    0.0000   -0.0000    0.0000
    26 N1     *f1-      -0.0000   -0.0057   -0.0020    0.0000    0.0000    0.0011   -0.0089   -0.0000    0.0000    0.0019
    27 N1     *f0        0.0240    0.0000   -0.0000   -0.0077    0.0015    0.0000   -0.0000    0.0374   -0.0000   -0.0000
    28 N1     *f1+      -0.0000   -0.0020    0.0057    0.0000    0.0000   -0.0089   -0.0011   -0.0000    0.0019   -0.0000
    29 N1     *f2+       0.0000    0.0000    0.0000   -0.0000   -0.0000    0.0000   -0.0000    0.0000    0.0000    0.0000
    30 N1     *f3+      -0.0000   -0.0000    0.0000    0.0000    0.0000   -0.0000   -0.0000   -0.0000   -0.0000    0.0000
    31 N2     1s        -0.0204   -0.0000   -0.0000   -0.1588    0.3005    0.0000    0.0000    0.4463    0.0000    0.0000
    32 N2     2s        -0.1650   -0.0000   -0.0000   -0.8417    1.4067    0.0000    0.0000    2.0119    0.0000    0.0000
    33 N2     *s         0.0395    0.0000   -0.0000    0.0443   -0.0861   -0.0000   -0.0000   -0.0340   -0.0000   -0.0000
    34 N2     *s        -1.2060   -0.0000    0.0000    1.0641   -1.2812   -0.0000   -0.0000   -4.2907   -0.0000   -0.0000
    35 N2     2px        0.0000   -0.1624    0.4531   -0.0000    0.0000   -0.4834   -0.0587   -0.0000    0.1956   -0.0051
    36 N2     *px        0.0000   -0.1208    0.3372   -0.0000    0.0000   -0.3620   -0.0440   -0.0000   -0.0002    0.0000
    37 N2     *px       -0.0000    0.3018   -0.8423   -0.0000   -0.0000    1.3099    0.1590    0.0000   -0.0452    0.0012
    38 N2     2py        0.0000   -0.4531   -0.1624    0.0000    0.0000    0.0587   -0.4834    0.0000    0.0051    0.1956
    39 N2     *py        0.0000   -0.3372   -0.1208    0.0000    0.0000    0.0440   -0.3620   -0.0000   -0.0000   -0.0002
    40 N2     *py       -0.0000    0.8423    0.3018   -0.0000   -0.0000   -0.1590    1.3099    0.0000   -0.0012   -0.0452
    41 N2     2pz       -0.6154   -0.0000    0.0000   -0.2987   -0.1040   -0.0000   -0.0000   -0.1546   -0.0000    0.0000
    42 N2     *pz       -0.1641   -0.0000    0.0000   -0.3501   -0.2224   -0.0000   -0.0000    0.0492    0.0000    0.0000
    43 N2     *pz        1.9309    0.0000   -0.0000    0.9081    0.4920    0.0000    0.0000    1.8622    0.0000    0.0000
    44 N2     *d2-       0.0000   -0.0000   -0.0000    0.0000    0.0000    0.0000   -0.0000   -0.0000    0.0000    0.0000
    45 N2     *d2-      -0.0000   -0.0000   -0.0000    0.0000   -0.0000   -0.0000   -0.0000    0.0000   -0.0000   -0.0000
    46 N2     *d1-      -0.0000   -0.0010   -0.0003   -0.0000   -0.0000   -0.0014    0.0113    0.0000    0.0001    0.0042
    47 N2     *d1-      -0.0000    0.0664    0.0238   -0.0000    0.0000    0.0027   -0.0226   -0.0000    0.0156    0.6037
    48 N2     *d0        0.0264    0.0000   -0.0000    0.0167    0.0076    0.0000    0.0000    0.0255    0.0000    0.0000
    49 N2     *d0       -0.2684   -0.0000    0.0000   -0.0018    0.1765    0.0000    0.0000   -0.0830    0.0000    0.0000
    50 N2     *d1+      -0.0000   -0.0003    0.0010   -0.0000   -0.0000    0.0113    0.0014    0.0000    0.0042   -0.0001
    51 N2     *d1+      -0.0000    0.0238   -0.0664    0.0000    0.0000   -0.0226   -0.0027   -0.0000    0.6037   -0.0156
    52 N2     *d2+      -0.0000   -0.0000    0.0000    0.0000   -0.0000   -0.0000   -0.0000   -0.0000    0.0000   -0.0000
    53 N2     *d2+       0.0000   -0.0000    0.0000   -0.0000    0.0000   -0.0000    0.0000    0.0000   -0.0000    0.0000
    54 N2     *f3-      -0.0000    0.0000    0.0000   -0.0000    0.0000   -0.0000    0.0000   -0.0000    0.0000    0.0000
    55 N2     *f2-      -0.0000   -0.0000    0.0000   -0.0000   -0.0000   -0.0000   -0.0000    0.0000    0.0000    0.0000
    56 N2     *f1-       0.0000   -0.0057   -0.0020   -0.0000   -0.0000   -0.0011    0.0089   -0.0000    0.0000    0.0019
    57 N2     *f0        0.0240    0.0000   -0.0000    0.0076   -0.0015   -0.0000    0.0000    0.0374   -0.0000    0.0000
    58 N2     *f1+      -0.0000   -0.0020    0.0057   -0.0000   -0.0000    0.0089    0.0011   -0.0000    0.0019   -0.0000
    59 N2     *f2+      -0.0000    0.0000    0.0000   -0.0000   -0.0000   -0.0000    0.0000    0.0000    0.0000   -0.0000
    60 N2     *f3+      -0.0000   -0.0000    0.0000    0.0000   -0.0000   -0.0000   -0.0000   -0.0000   -0.0000    0.0000


      Orbital                21        22        23        24        25        26        27        28        29        30
      Energy             0.0000    0.0000    0.0000    0.0000    0.0000    0.0000    0.0000    0.0000    0.0000    0.0000
      Occ. No.           0.0000    0.0000    0.0000    0.0000    0.0000    0.0000    0.0000    0.0000    0.0000    0.0000

     1 N1     1s        -0.0000    0.0000   -0.0000    0.0000   -0.1755    0.0000    0.0000   -0.2152   -0.0000    0.0000
     2 N1     2s         0.0000    0.0000   -0.0000    0.0000   -0.8700    0.0000    0.0000   -0.8087   -0.0000    0.0000
     3 N1     *s         0.0000   -0.0000    0.0000    0.0000    0.0077   -0.0000   -0.0000   -0.0924    0.0000   -0.0000
     4 N1     *s        -0.0000   -0.0000    0.0000   -0.0000    0.5967   -0.0000   -0.0000    4.0940    0.0000   -0.0000
     5 N1     2px        0.0000    0.0000   -0.0000   -0.0000   -0.0000    0.0883    0.0931   -0.0000   -2.3647    0.0712
     6 N1     *px        0.0000   -0.0000    0.0000    0.0000   -0.0000   -0.0869   -0.0916    0.0000    2.1669   -0.0653
     7 N1     *px       -0.0000   -0.0000   -0.0000    0.0000    0.0000    0.3232    0.3406   -0.0000    0.4311   -0.0130
     8 N1     2py        0.0000   -0.0000   -0.0000    0.0000    0.0000    0.0931   -0.0883   -0.0000    0.0712    2.3647
     9 N1     *py       -0.0000   -0.0000    0.0000   -0.0000   -0.0000   -0.0916    0.0869    0.0000   -0.0653   -2.1669
    10 N1     *py       -0.0000    0.0000    0.0000    0.0000    0.0000    0.3406   -0.3232   -0.0000   -0.0130   -0.4311
    11 N1     2pz       -0.0000    0.0000   -0.0000    0.0000   -0.1966    0.0000    0.0000    0.6226   -0.0000    0.0000
    12 N1     *pz        0.0000    0.0000   -0.0000   -0.0000   -0.3478   -0.0000    0.0000    0.0394    0.0000   -0.0000
    13 N1     *pz       -0.0000   -0.0000   -0.0000   -0.0000    0.5411   -0.0000   -0.0000    2.1250    0.0000   -0.0000
    14 N1     *d2-      -0.0157    0.0000    0.0097   -0.0000    0.0000   -0.0000    0.0000    0.0000    0.0000   -0.0000
    15 N1     *d2-       0.6754   -0.0000   -0.7570    0.0000    0.0000   -0.0000    0.0000   -0.0000    0.0000   -0.0000
    16 N1     *d1-      -0.0000    0.0000    0.0000   -0.0000   -0.0000   -0.0082    0.0078   -0.0000   -0.0000   -0.0009
    17 N1     *d1-      -0.0000    0.0000    0.0000    0.0000    0.0000    0.7302   -0.6929   -0.0000    0.0021    0.0687
    18 N1     *d0        0.0000    0.0000   -0.0000    0.0000    0.0224   -0.0000   -0.0000   -0.0467   -0.0000    0.0000
    19 N1     *d0       -0.0000   -0.0000   -0.0000    0.0000    0.7068   -0.0000   -0.0000    1.4464    0.0000   -0.0000
    20 N1     *d1+      -0.0000   -0.0000    0.0000    0.0000   -0.0000   -0.0078   -0.0082   -0.0000    0.0009   -0.0000
    21 N1     *d1+      -0.0000   -0.0000   -0.0000    0.0000    0.0000    0.6929    0.7302   -0.0000   -0.0687    0.0021
    22 N1     *d2+      -0.0000   -0.0157    0.0000    0.0097    0.0000   -0.0000   -0.0000    0.0000    0.0000    0.0000
    23 N1     *d2+       0.0000    0.6754   -0.0000   -0.7570    0.0000   -0.0000   -0.0000    0.0000    0.0000    0.0000
    24 N1     *f3-      -0.0000   -0.0000    0.0000    0.0000    0.0000    0.0000   -0.0000   -0.0000   -0.0000   -0.0000
    25 N1     *f2-       0.0145   -0.0000    0.0117   -0.0000    0.0000   -0.0000    0.0000   -0.0000    0.0000   -0.0000
    26 N1     *f1-       0.0000   -0.0000    0.0000   -0.0000   -0.0000   -0.0160    0.0152   -0.0000   -0.0031   -0.1044
    27 N1     *f0        0.0000   -0.0000    0.0000   -0.0000   -0.0390    0.0000    0.0000    0.0461   -0.0000    0.0000
    28 N1     *f1+       0.0000    0.0000    0.0000    0.0000   -0.0000   -0.0152   -0.0160   -0.0000    0.1044   -0.0031
    29 N1     *f2+       0.0000    0.0145    0.0000    0.0117    0.0000   -0.0000   -0.0000    0.0000    0.0000    0.0000
    30 N1     *f3+       0.0000   -0.0000   -0.0000    0.0000    0.0000   -0.0000   -0.0000   -0.0000   -0.0000    0.0000
    31 N2     1s        -0.0000   -0.0000   -0.0000   -0.0000   -0.1755    0.0000    0.0000    0.2152    0.0000    0.0000
    32 N2     2s        -0.0000   -0.0000   -0.0000   -0.0000   -0.8701    0.0000    0.0000    0.8086    0.0000   -0.0000
    33 N2     *s         0.0000    0.0000    0.0000   -0.0000    0.0077   -0.0000   -0.0000    0.0924   -0.0000   -0.0000
    34 N2     *s         0.0000    0.0000    0.0000    0.0000    0.5969   -0.0000   -0.0000   -4.0939   -0.0000    0.0000
    35 N2     2px        0.0000    0.0000   -0.0000   -0.0000   -0.0000   -0.0883   -0.0931   -0.0000   -2.3650    0.0712
    36 N2     *px       -0.0000    0.0000   -0.0000    0.0000    0.0000    0.0870    0.0916    0.0000    2.1673   -0.0653
    37 N2     *px       -0.0000   -0.0000    0.0000    0.0000   -0.0000   -0.3232   -0.3406   -0.0000    0.4311   -0.0130
    38 N2     2py        0.0000   -0.0000   -0.0000    0.0000   -0.0000   -0.0931    0.0883   -0.0000    0.0712    2.3650
    39 N2     *py        0.0000    0.0000    0.0000   -0.0000    0.0000    0.0916   -0.0870    0.0000   -0.0653   -2.1673
    40 N2     *py       -0.0000    0.0000    0.0000   -0.0000   -0.0000   -0.3406    0.3232   -0.0000   -0.0130   -0.4311
    41 N2     2pz        0.0000    0.0000    0.0000    0.0000    0.1965   -0.0000   -0.0000    0.6227   -0.0000    0.0000
    42 N2     *pz        0.0000   -0.0000   -0.0000    0.0000    0.3478   -0.0000   -0.0000    0.0394    0.0000   -0.0000
    43 N2     *pz       -0.0000   -0.0000   -0.0000   -0.0000   -0.5412    0.0000    0.0000    2.1249    0.0000   -0.0000
    44 N2     *d2-      -0.0157    0.0000   -0.0097    0.0000   -0.0000   -0.0000    0.0000   -0.0000   -0.0000    0.0000
    45 N2     *d2-       0.6754   -0.0000    0.7570   -0.0000   -0.0000   -0.0000   -0.0000    0.0000   -0.0000    0.0000
    46 N2     *d1-      -0.0000    0.0000   -0.0000    0.0000   -0.0000   -0.0082    0.0078    0.0000    0.0000    0.0009
    47 N2     *d1-       0.0000   -0.0000   -0.0000   -0.0000    0.0000    0.7302   -0.6929    0.0000   -0.0021   -0.0687
    48 N2     *d0        0.0000   -0.0000   -0.0000   -0.0000    0.0224   -0.0000   -0.0000    0.0468    0.0000    0.0000
    49 N2     *d0        0.0000    0.0000    0.0000   -0.0000    0.7069   -0.0000   -0.0000   -1.4464   -0.0000    0.0000
    50 N2     *d1+      -0.0000   -0.0000   -0.0000   -0.0000   -0.0000   -0.0078   -0.0082    0.0000   -0.0009    0.0000
    51 N2     *d1+       0.0000    0.0000    0.0000   -0.0000    0.0000    0.6929    0.7302    0.0000    0.0687   -0.0021
    52 N2     *d2+      -0.0000   -0.0157   -0.0000   -0.0097    0.0000   -0.0000   -0.0000   -0.0000   -0.0000   -0.0000
    53 N2     *d2+       0.0000    0.6754    0.0000    0.7570   -0.0000    0.0000   -0.0000   -0.0000   -0.0000   -0.0000
    54 N2     *f3-       0.0000   -0.0000    0.0000   -0.0000   -0.0000    0.0000   -0.0000   -0.0000    0.0000    0.0000
    55 N2     *f2-      -0.0145    0.0000    0.0117   -0.0000    0.0000    0.0000   -0.0000   -0.0000    0.0000   -0.0000
    56 N2     *f1-      -0.0000   -0.0000    0.0000   -0.0000    0.0000    0.0160   -0.0152   -0.0000   -0.0031   -0.1044
    57 N2     *f0        0.0000   -0.0000   -0.0000   -0.0000    0.0390   -0.0000   -0.0000    0.0462   -0.0000    0.0000
    58 N2     *f1+       0.0000   -0.0000    0.0000    0.0000    0.0000    0.0152    0.0160   -0.0000    0.1044   -0.0031
    59 N2     *f2+      -0.0000   -0.0145    0.0000    0.0117    0.0000    0.0000    0.0000   -0.0000    0.0000    0.0000
    60 N2     *f3+       0.0000    0.0000    0.0000    0.0000   -0.0000   -0.0000   -0.0000   -0.0000    0.0000   -0.0000


      Orbital                31        32        33        34        35        36        37        38        39        40
      Energy             0.0000    0.0000    0.0000    0.0000    0.0000    0.0000    0.0000    0.0000    0.0000    0.0000
      Occ. No.           0.0000    0.0000    0.0000    0.0000    0.0000    0.0000    0.0000    0.0000    0.0000    0.0000

     1 N1     1s        -0.0478   -0.0000   -0.0000   -0.1838   -0.0000    0.0000   -0.0805   -0.0000   -0.0000    0.0000
     2 N1     2s        -0.1161   -0.0000   -0.0000   -0.4729   -0.0000    0.0000   -0.0963   -0.0000   -0.0000    0.0000
     3 N1     *s         0.0209    0.0000   -0.0000    0.1266    0.0000   -0.0000    0.1371    0.0000    0.0000   -0.0000
     4 N1     *s         0.0060    0.0000    0.0000    1.3456    0.0000   -0.0000    0.0439    0.0000    0.0000    0.0000
     5 N1     2px       -0.0000   -2.4020   -0.1317    0.0000    0.4729   -0.0148    0.0000   -0.0000   -0.0000   -0.0000
     6 N1     *px        0.0000    2.2582    0.1238   -0.0000   -0.4878    0.0153   -0.0000    0.0000    0.0000    0.0000
     7 N1     *px       -0.0000    0.2790    0.0153   -0.0000   -0.0534    0.0017    0.0000   -0.0000   -0.0000    0.0000
     8 N1     2py       -0.0000   -0.1317    2.4020    0.0000   -0.0148   -0.4729    0.0000    0.0000   -0.0000   -0.0000
     9 N1     *py        0.0000    0.1238   -2.2582   -0.0000    0.0153    0.4878   -0.0000   -0.0000    0.0000    0.0000
    10 N1     *py       -0.0000    0.0153   -0.2790   -0.0000    0.0017    0.0534   -0.0000    0.0000   -0.0000    0.0000
    11 N1     2pz        2.4153   -0.0000    0.0000   -2.0702   -0.0000   -0.0000   -0.1995   -0.0000   -0.0000   -0.0000
    12 N1     *pz       -2.2189    0.0000   -0.0000    2.1915    0.0000    0.0000    0.2742    0.0000    0.0000    0.0000
    13 N1     *pz       -0.3077    0.0000   -0.0000    1.0240    0.0000   -0.0000   -0.0505    0.0000    0.0000    0.0000
    14 N1     *d2-      -0.0000    0.0000   -0.0000   -0.0000    0.0000   -0.0000   -0.0000    0.0000    0.0484   -0.0000
    15 N1     *d2-      -0.0000   -0.0000   -0.0000   -0.0000    0.0000    0.0000   -0.0000    0.0000    0.0346   -0.0000
    16 N1     *d1-      -0.0000   -0.0001    0.0015    0.0000   -0.0034   -0.1079   -0.0000    0.0000    0.0000   -0.0000
    17 N1     *d1-      -0.0000    0.0021   -0.0378   -0.0000    0.0037    0.1182   -0.0000    0.0000   -0.0000    0.0000
    18 N1     *d0       -0.0560   -0.0000    0.0000    0.0635   -0.0000    0.0000   -0.3232   -0.0000   -0.0000   -0.0000
    19 N1     *d0        0.1726    0.0000   -0.0000    0.4611    0.0000   -0.0000    0.1724    0.0000    0.0000    0.0000
    20 N1     *d1+      -0.0000   -0.0015   -0.0001    0.0000    0.1079   -0.0034   -0.0000    0.0000   -0.0000   -0.0000
    21 N1     *d1+      -0.0000    0.0378    0.0021    0.0000   -0.1182    0.0037    0.0000   -0.0000   -0.0000    0.0000
    22 N1     *d2+       0.0000    0.0000    0.0000    0.0000    0.0000    0.0000   -0.0000    0.0483   -0.0000   -0.0000
    23 N1     *d2+       0.0000    0.0000   -0.0000   -0.0000   -0.0000    0.0000   -0.0000    0.0346   -0.0000    0.0000
    24 N1     *f3-       0.0000    0.0000   -0.0000   -0.0000    0.0000    0.0000    0.0000   -0.0000   -0.0000   -0.0022
    25 N1     *f2-      -0.0000    0.0000   -0.0000    0.0000    0.0000   -0.0000    0.0000   -0.0000   -0.6854   -0.0000
    26 N1     *f1-      -0.0000   -0.0053    0.0960    0.0000   -0.0204   -0.6503   -0.0000    0.0000   -0.0000   -0.0000
    27 N1     *f0       -0.0047   -0.0000    0.0000   -0.3219   -0.0000   -0.0000   -0.5950   -0.0000   -0.0000    0.0000
    28 N1     *f1+      -0.0000   -0.0960   -0.0053   -0.0000    0.6503   -0.0204   -0.0000   -0.0000   -0.0000   -0.0000
    29 N1     *f2+       0.0000    0.0000    0.0000    0.0000    0.0000    0.0000    0.0000   -0.6854    0.0000    0.0000
    30 N1     *f3+       0.0000   -0.0000   -0.0000    0.0000    0.0000   -0.0000   -0.0000   -0.0000    0.0000    0.7048
    31 N2     1s        -0.0478   -0.0000   -0.0000    0.1838    0.0000   -0.0000   -0.0805    0.0000   -0.0000   -0.0000
    32 N2     2s        -0.1161   -0.0000   -0.0000    0.4730    0.0000   -0.0000   -0.0964    0.0000   -0.0000   -0.0000
    33 N2     *s         0.0210    0.0000    0.0000   -0.1267   -0.0000    0.0000    0.1371    0.0000    0.0000    0.0000
    34 N2     *s         0.0059    0.0000    0.0000   -1.3456   -0.0000    0.0000    0.0440   -0.0000   -0.0000   -0.0000
    35 N2     2px       -0.0000    2.4017    0.1317    0.0000    0.4729   -0.0148   -0.0000    0.0000    0.0000    0.0000
    36 N2     *px        0.0000   -2.2579   -0.1238   -0.0000   -0.4878    0.0153    0.0000   -0.0000   -0.0000   -0.0000
    37 N2     *px        0.0000   -0.2789   -0.0153   -0.0000   -0.0534    0.0017    0.0000    0.0000    0.0000    0.0000
    38 N2     2py       -0.0000    0.1317   -2.4017    0.0000   -0.0148   -0.4729   -0.0000   -0.0000    0.0000    0.0000
    39 N2     *py       -0.0000   -0.1238    2.2579   -0.0000    0.0153    0.4878    0.0000    0.0000   -0.0000   -0.0000
    40 N2     *py        0.0000   -0.0153    0.2789   -0.0000    0.0017    0.0534   -0.0000   -0.0000    0.0000    0.0000
    41 N2     2pz       -2.4153    0.0000   -0.0000   -2.0702   -0.0000   -0.0000    0.1997   -0.0000   -0.0000   -0.0000
    42 N2     *pz        2.2188   -0.0000    0.0000    2.1915    0.0000    0.0000   -0.2743    0.0000    0.0000    0.0000
    43 N2     *pz        0.3078   -0.0000    0.0000    1.0240    0.0000   -0.0000    0.0504    0.0000    0.0000    0.0000
    44 N2     *d2-       0.0000   -0.0000   -0.0000   -0.0000   -0.0000    0.0000   -0.0000    0.0000    0.0484    0.0000
    45 N2     *d2-       0.0000   -0.0000   -0.0000    0.0000   -0.0000    0.0000    0.0000    0.0000    0.0346   -0.0000
    46 N2     *d1-      -0.0000   -0.0001    0.0015   -0.0000    0.0034    0.1079    0.0000    0.0000   -0.0000    0.0000
    47 N2     *d1-      -0.0000    0.0021   -0.0378    0.0000   -0.0037   -0.1182   -0.0000    0.0000   -0.0000   -0.0000
    48 N2     *d0       -0.0560   -0.0000    0.0000   -0.0635   -0.0000    0.0000   -0.3232   -0.0000   -0.0000   -0.0000
    49 N2     *d0        0.1726    0.0000   -0.0000   -0.4611   -0.0000    0.0000    0.1724   -0.0000   -0.0000   -0.0000
    50 N2     *d1+      -0.0000   -0.0015   -0.0001   -0.0000   -0.1079    0.0034    0.0000   -0.0000   -0.0000    0.0000
    51 N2     *d1+      -0.0000    0.0378    0.0021   -0.0000    0.1182   -0.0037    0.0000   -0.0000   -0.0000   -0.0000
    52 N2     *d2+      -0.0000    0.0000   -0.0000   -0.0000   -0.0000   -0.0000   -0.0000    0.0484   -0.0000   -0.0000
    53 N2     *d2+      -0.0000    0.0000   -0.0000    0.0000    0.0000   -0.0000   -0.0000    0.0346   -0.0000   -0.0000
    54 N2     *f3-       0.0000    0.0000   -0.0000    0.0000   -0.0000   -0.0000   -0.0000    0.0000    0.0000   -0.0022
    55 N2     *f2-       0.0000   -0.0000    0.0000   -0.0000    0.0000   -0.0000   -0.0000    0.0000    0.6854   -0.0000
    56 N2     *f1-       0.0000    0.0053   -0.0960    0.0000   -0.0204   -0.6503   -0.0000   -0.0000    0.0000   -0.0000
    57 N2     *f0        0.0047    0.0000   -0.0000   -0.3219    0.0000   -0.0000    0.5950    0.0000    0.0000    0.0000
    58 N2     *f1+       0.0000    0.0960    0.0053   -0.0000    0.6503   -0.0204   -0.0000    0.0000    0.0000   -0.0000
    59 N2     *f2+      -0.0000   -0.0000   -0.0000   -0.0000    0.0000    0.0000   -0.0000    0.6854   -0.0000    0.0000
    60 N2     *f3+      -0.0000   -0.0000   -0.0000   -0.0000   -0.0000    0.0000    0.0000    0.0000   -0.0000    0.7047


      Orbital                41        42        43        44        45        46        47        48        49        50
      Energy             0.0000    0.0000    0.0000    0.0000    0.0000    0.0000    0.0000    0.0000    0.0000    0.0000
      Occ. No.           0.0000    0.0000    0.0000    0.0000    0.0000    0.0000    0.0000    0.0000    0.0000    0.0000

     1 N1     1s         0.0000    0.0000    0.0000    0.0000   -0.0000    0.0000   -0.0000   -0.0000    0.0000   -0.0000
     2 N1     2s        -0.0000    0.0000    0.0000    0.0000   -0.0000    0.0000   -0.0000   -0.0000    0.0000   -0.0000
     3 N1     *s        -0.0000   -0.0000   -0.0000   -0.0000    0.0000   -0.0000    0.0000    0.0000   -0.0000    0.0000
     4 N1     *s         0.0000   -0.0000   -0.0000   -0.0000   -0.0000   -0.0000    0.0000    0.0000   -0.0000    0.0000
     5 N1     2px       -0.0000    0.0000    0.0000    0.0000    0.0000   -0.0000   -0.0000   -0.2408   -0.0053    0.0000
     6 N1     *px        0.0000   -0.0000   -0.0000   -0.0000   -0.0000    0.0000    0.0000    0.2472    0.0054   -0.0000
     7 N1     *px        0.0000   -0.0000   -0.0000    0.0000   -0.0000   -0.0000   -0.0000   -0.0580   -0.0013   -0.0000
     8 N1     2py        0.0000    0.0000   -0.0000    0.0000   -0.0000   -0.0000    0.0000   -0.0053    0.2408    0.0000
     9 N1     *py       -0.0000   -0.0000    0.0000   -0.0000    0.0000    0.0000   -0.0000    0.0054   -0.2472   -0.0000
    10 N1     *py       -0.0000   -0.0000    0.0000   -0.0000   -0.0000   -0.0000    0.0000   -0.0013    0.0580   -0.0000
    11 N1     2pz       -0.0000    0.0000   -0.0000   -0.0000    0.0000   -0.0000   -0.0000    0.0000   -0.0000    0.0000
    12 N1     *pz        0.0000   -0.0000    0.0000    0.0000   -0.0000    0.0000    0.0000   -0.0000    0.0000    0.0000
    13 N1     *pz        0.0000   -0.0000   -0.0000   -0.0000   -0.0000   -0.0000    0.0000    0.0000   -0.0000    0.0000
    14 N1     *d2-      -0.0000   -0.0000    0.0000    0.2388   -0.0000    0.8203   -0.0000   -0.0000    0.0000   -0.8025
    15 N1     *d2-       0.0000    0.0000   -0.0000   -0.0667    0.0000   -0.3874    0.0000    0.0000   -0.0000    0.4700
    16 N1     *d1-       0.0000    0.0000   -0.0000   -0.0000    0.0000    0.0000   -0.0000    0.0150   -0.6811   -0.0000
    17 N1     *d1-      -0.0000   -0.0000    0.0000    0.0000   -0.0000   -0.0000    0.0000   -0.0076    0.3442    0.0000
    18 N1     *d0       -0.0000    0.0000    0.0000   -0.0000    0.0000   -0.0000   -0.0000    0.0000   -0.0000    0.0000
    19 N1     *d0        0.0000   -0.0000    0.0000    0.0000   -0.0000    0.0000    0.0000    0.0000    0.0000   -0.0000
    20 N1     *d1+      -0.0000    0.0000    0.0000   -0.0000   -0.0000    0.0000    0.0000    0.6811    0.0150   -0.0000
    21 N1     *d1+       0.0000   -0.0000   -0.0000    0.0000    0.0000   -0.0000   -0.0000   -0.3442   -0.0076    0.0000
    22 N1     *d2+       0.0000    0.0000    0.0000    0.0000    0.2388    0.0000    0.8201   -0.0000   -0.0000    0.0000
    23 N1     *d2+       0.0000   -0.0000   -0.0000   -0.0000   -0.0667   -0.0000   -0.3873    0.0000    0.0000   -0.0000
    24 N1     *f3-       0.7048    0.4748   -0.5271   -0.0000   -0.0000    0.0000    0.0000    0.0000   -0.0000   -0.0000
    25 N1     *f2-       0.0000   -0.0000    0.0000    0.6933   -0.0000    0.0602   -0.0000   -0.0000    0.0000    0.2355
    26 N1     *f1-       0.0000    0.0000   -0.0000   -0.0000    0.0000    0.0000   -0.0000    0.0091   -0.4144    0.0000
    27 N1     *f0        0.0000   -0.0000    0.0000    0.0000    0.0000   -0.0000    0.0000   -0.0000    0.0000    0.0000
    28 N1     *f1+      -0.0000    0.0000    0.0000   -0.0000   -0.0000    0.0000    0.0000    0.4144    0.0091    0.0000
    29 N1     *f2+       0.0000    0.0000    0.0000    0.0000    0.6933    0.0000    0.0603   -0.0000   -0.0000   -0.0000
    30 N1     *f3+       0.0022   -0.5271   -0.4748    0.0000   -0.0000   -0.0000    0.0000   -0.0000   -0.0000    0.0000
    31 N2     1s         0.0000    0.0000   -0.0000   -0.0000    0.0000    0.0000   -0.0000   -0.0000    0.0000    0.0000
    32 N2     2s         0.0000    0.0000   -0.0000   -0.0000    0.0000    0.0000    0.0000   -0.0000    0.0000    0.0000
    33 N2     *s        -0.0000   -0.0000    0.0000    0.0000   -0.0000   -0.0000    0.0000    0.0000   -0.0000   -0.0000
    34 N2     *s        -0.0000    0.0000    0.0000    0.0000   -0.0000   -0.0000   -0.0000    0.0000   -0.0000   -0.0000
    35 N2     2px        0.0000   -0.0000   -0.0000    0.0000    0.0000    0.0000    0.0000    0.2408    0.0053    0.0000
    36 N2     *px       -0.0000    0.0000    0.0000   -0.0000   -0.0000   -0.0000   -0.0000   -0.2472   -0.0054   -0.0000
    37 N2     *px        0.0000    0.0000    0.0000   -0.0000   -0.0000    0.0000    0.0000    0.0580    0.0013   -0.0000
    38 N2     2py       -0.0000   -0.0000    0.0000    0.0000   -0.0000    0.0000   -0.0000    0.0053   -0.2408    0.0000
    39 N2     *py        0.0000    0.0000   -0.0000   -0.0000    0.0000   -0.0000    0.0000   -0.0054    0.2472   -0.0000
    40 N2     *py       -0.0000    0.0000   -0.0000   -0.0000    0.0000    0.0000   -0.0000    0.0013   -0.0580   -0.0000
    41 N2     2pz        0.0000   -0.0000   -0.0000   -0.0000    0.0000    0.0000    0.0000   -0.0000    0.0000    0.0000
    42 N2     *pz        0.0000    0.0000    0.0000    0.0000   -0.0000    0.0000    0.0000    0.0000   -0.0000   -0.0000
    43 N2     *pz        0.0000   -0.0000    0.0000    0.0000   -0.0000   -0.0000    0.0000    0.0000   -0.0000    0.0000
    44 N2     *d2-      -0.0000    0.0000    0.0000   -0.2388    0.0000    0.8204   -0.0000   -0.0000    0.0000    0.8025
    45 N2     *d2-      -0.0000    0.0000   -0.0000    0.0667   -0.0000   -0.3875    0.0000    0.0000   -0.0000   -0.4700
    46 N2     *d1-      -0.0000    0.0000   -0.0000    0.0000    0.0000    0.0000   -0.0000    0.0150   -0.6811    0.0000
    47 N2     *d1-       0.0000    0.0000   -0.0000   -0.0000   -0.0000   -0.0000    0.0000   -0.0076    0.3442   -0.0000
    48 N2     *d0        0.0000   -0.0000   -0.0000    0.0000    0.0000    0.0000    0.0000    0.0000   -0.0000   -0.0000
    49 N2     *d0       -0.0000    0.0000    0.0000   -0.0000   -0.0000   -0.0000   -0.0000   -0.0000    0.0000   -0.0000
    50 N2     *d1+       0.0000    0.0000    0.0000   -0.0000    0.0000    0.0000    0.0000    0.6811    0.0150    0.0000
    51 N2     *d1+      -0.0000    0.0000    0.0000    0.0000   -0.0000   -0.0000   -0.0000   -0.3442   -0.0076   -0.0000
    52 N2     *d2+      -0.0000    0.0000   -0.0000   -0.0000   -0.2388    0.0000    0.8206   -0.0000   -0.0000   -0.0000
    53 N2     *d2+       0.0000   -0.0000   -0.0000    0.0000    0.0667   -0.0000   -0.3876    0.0000    0.0000    0.0000
    54 N2     *f3-       0.7047   -0.4749    0.5272   -0.0000   -0.0000   -0.0000    0.0000    0.0000   -0.0000   -0.0000
    55 N2     *f2-       0.0000    0.0000   -0.0000    0.6933   -0.0000   -0.0602    0.0000    0.0000   -0.0000    0.2355
    56 N2     *f1-       0.0000    0.0000   -0.0000   -0.0000    0.0000   -0.0000    0.0000   -0.0091    0.4144    0.0000
    57 N2     *f0        0.0000   -0.0000    0.0000   -0.0000    0.0000    0.0000    0.0000    0.0000   -0.0000    0.0000
    58 N2     *f1+      -0.0000    0.0000    0.0000   -0.0000   -0.0000   -0.0000   -0.0000   -0.4144   -0.0091    0.0000
    59 N2     *f2+       0.0000   -0.0000   -0.0000    0.0000    0.6933   -0.0000   -0.0600    0.0000    0.0000   -0.0000
    60 N2     *f3+       0.0022    0.5272    0.4749    0.0000   -0.0000   -0.0000   -0.0000   -0.0000   -0.0000    0.0000


      Orbital                51        52        53        54        55        56        57        58        59        60
      Energy             0.0000    0.0000    0.0000    0.0000    0.0000    0.0000    0.0000    0.0000    0.0000    0.0000
      Occ. No.           0.0000    0.0000    0.0000    0.0000    0.0000    0.0000    0.0000    0.0000    0.0000    0.0000

     1 N1     1s         0.0000    0.0000    0.0000    0.2795   -0.9123   -0.9719    0.0000   -0.0000    1.4492    1.6523
     2 N1     2s         0.0000    0.0000    0.0000    0.5561   -1.8342   -2.2518    0.0000   -0.0000    3.3823    3.8611
     3 N1     *s        -0.0000   -0.0000   -0.0000   -0.4772    1.3688    1.0779   -0.0000    0.0000   -1.9157   -2.3536
     4 N1     *s        -0.0000    0.0000    0.0000    0.6225    1.1098    4.4353   -0.0000    0.0000   -2.0693   -1.8582
     5 N1     2px        0.0000    0.0107    0.0967   -0.0000    0.0000    0.0000    0.3803    0.0988   -0.0000   -0.0000
     6 N1     *px       -0.0000   -0.0139   -0.1264    0.0000   -0.0000   -0.0000   -0.4119   -0.1070    0.0000    0.0000
     7 N1     *px       -0.0000   -0.0037   -0.0332    0.0000   -0.0000   -0.0000   -0.3412   -0.0886    0.0000    0.0000
     8 N1     2py       -0.0000    0.0967   -0.0107   -0.0000    0.0000    0.0000    0.0988   -0.3803   -0.0000    0.0000
     9 N1     *py        0.0000   -0.1264    0.0139    0.0000   -0.0000   -0.0000   -0.1070    0.4119    0.0000    0.0000
    10 N1     *py        0.0000   -0.0332    0.0037    0.0000   -0.0000   -0.0000   -0.0886    0.3412   -0.0000   -0.0000
    11 N1     2pz        0.0000   -0.0000   -0.0000   -0.0729    0.0398   -1.3388    0.0000   -0.0000    0.0573   -1.3271
    12 N1     *pz       -0.0000    0.0000    0.0000    0.2503    0.1328    1.9084   -0.0000    0.0000    0.1999    1.8763
    13 N1     *pz       -0.0000    0.0000    0.0000    0.6445   -0.1408    2.1314   -0.0000    0.0000   -0.2946    0.4686
    14 N1     *d2-      -0.0000    0.0000    0.0000   -0.0000    0.0000    0.0000   -0.0000    0.0000   -0.0000   -0.0000
    15 N1     *d2-       0.0000   -0.0000   -0.0000    0.0000   -0.0000   -0.0000    0.0000   -0.0000   -0.0000    0.0000
    16 N1     *d1-       0.0000   -0.8213    0.0906    0.0000    0.0000    0.0000    0.1365   -0.5255   -0.0000   -0.0000
    17 N1     *d1-      -0.0000    0.3767   -0.0416   -0.0000   -0.0000   -0.0000   -0.1880    0.7239    0.0000   -0.0000
    18 N1     *d0        0.0000   -0.0000   -0.0000   -0.8077    0.6475   -0.3319   -0.0000    0.0000    0.5421   -0.0036
    19 N1     *d0       -0.0000    0.0000    0.0000    0.6944   -0.3672    1.2589    0.0000    0.0000   -0.5165    0.7614
    20 N1     *d1+      -0.0000   -0.0906   -0.8213    0.0000    0.0000   -0.0000    0.5255    0.1365   -0.0000   -0.0000
    21 N1     *d1+       0.0000    0.0416    0.3767   -0.0000   -0.0000   -0.0000   -0.7239   -0.1880    0.0000   -0.0000
    22 N1     *d2+      -0.8028   -0.0000    0.0000   -0.0000    0.0000   -0.0000   -0.0000   -0.0000    0.0000    0.0000
    23 N1     *d2+       0.4702    0.0000   -0.0000    0.0000   -0.0000    0.0000    0.0000    0.0000   -0.0000   -0.0000
    24 N1     *f3-      -0.0000    0.0000   -0.0000   -0.0000    0.0000   -0.0000   -0.0000    0.0000   -0.0000    0.0000
    25 N1     *f2-       0.0000   -0.0000   -0.0000   -0.0000    0.0000    0.0000    0.0000   -0.0000   -0.0000   -0.0000
    26 N1     *f1-      -0.0000    0.0690   -0.0076   -0.0000   -0.0000   -0.0000   -0.1794    0.6906    0.0000   -0.0000
    27 N1     *f0       -0.0000   -0.0000   -0.0000   -0.1610   -0.1889    0.6828    0.0000    0.0000   -0.2675    0.5615
    28 N1     *f1+       0.0000    0.0076    0.0690   -0.0000   -0.0000   -0.0000   -0.6906   -0.1794    0.0000   -0.0000
    29 N1     *f2+       0.2355    0.0000   -0.0000    0.0000   -0.0000    0.0000    0.0000    0.0000   -0.0000    0.0000
    30 N1     *f3+      -0.0000   -0.0000   -0.0000   -0.0000   -0.0000   -0.0000    0.0000    0.0000    0.0000    0.0000
    31 N2     1s        -0.0000   -0.0000   -0.0000   -0.2798   -0.9136    0.9712    0.0000   -0.0000    1.4492   -1.6519
    32 N2     2s        -0.0000   -0.0000   -0.0000   -0.5565   -1.8372    2.2505    0.0000    0.0000    3.3824   -3.8602
    33 N2     *s         0.0000    0.0000    0.0000    0.4776    1.3703   -1.0768   -0.0000    0.0000   -1.9159    2.3530
    34 N2     *s         0.0000   -0.0000   -0.0000   -0.6222    1.1155   -4.4345   -0.0000   -0.0000   -2.0682    1.8576
    35 N2     2px        0.0000    0.0107    0.0967   -0.0000   -0.0000   -0.0000   -0.3803   -0.0988    0.0000   -0.0000
    36 N2     *px       -0.0000   -0.0139   -0.1263    0.0000    0.0000    0.0000    0.4119    0.1070   -0.0000    0.0000
    37 N2     *px       -0.0000   -0.0037   -0.0332    0.0000    0.0000    0.0000    0.3412    0.0886   -0.0000    0.0000
    38 N2     2py       -0.0000    0.0967   -0.0107   -0.0000   -0.0000   -0.0000   -0.0988    0.3803   -0.0000    0.0000
    39 N2     *py        0.0000   -0.1263    0.0139    0.0000    0.0000    0.0000    0.1070   -0.4119    0.0000   -0.0000
    40 N2     *py        0.0000   -0.0332    0.0037    0.0000    0.0000    0.0000    0.0886   -0.3412    0.0000   -0.0000
    41 N2     2pz        0.0000   -0.0000   -0.0000   -0.0729   -0.0382   -1.3389    0.0000   -0.0000   -0.0565   -1.3271
    42 N2     *pz       -0.0000    0.0000    0.0000    0.2503   -0.1350    1.9082   -0.0000    0.0000   -0.2009    1.8762
    43 N2     *pz       -0.0000    0.0000    0.0000    0.6445    0.1381    2.1317   -0.0000    0.0000    0.2938    0.4687
    44 N2     *d2-       0.0000   -0.0000   -0.0000    0.0000    0.0000   -0.0000   -0.0000    0.0000   -0.0000    0.0000
    45 N2     *d2-      -0.0000    0.0000    0.0000   -0.0000   -0.0000   -0.0000    0.0000   -0.0000    0.0000    0.0000
    46 N2     *d1-      -0.0000    0.8213   -0.0906   -0.0000    0.0000    0.0000    0.1365   -0.5255   -0.0000   -0.0000
    47 N2     *d1-       0.0000   -0.3767    0.0416    0.0000   -0.0000   -0.0000   -0.1880    0.7239    0.0000    0.0000
    48 N2     *d0       -0.0000    0.0000    0.0000    0.8079    0.6469    0.3329   -0.0000    0.0000    0.5420    0.0036
    49 N2     *d0        0.0000   -0.0000   -0.0000   -0.6944   -0.3655   -1.2595    0.0000   -0.0000   -0.5159   -0.7615
    50 N2     *d1+       0.0000    0.0906    0.8213   -0.0000    0.0000    0.0000    0.5255    0.1365   -0.0000   -0.0000
    51 N2     *d1+      -0.0000   -0.0416   -0.3767    0.0000   -0.0000   -0.0000   -0.7239   -0.1880    0.0000    0.0000
    52 N2     *d2+       0.8022    0.0000   -0.0000    0.0000   -0.0000    0.0000   -0.0000   -0.0000    0.0000   -0.0000
    53 N2     *d2+      -0.4699   -0.0000    0.0000   -0.0000    0.0000   -0.0000    0.0000    0.0000   -0.0000    0.0000
    54 N2     *f3-      -0.0000    0.0000   -0.0000    0.0000    0.0000   -0.0000    0.0000   -0.0000    0.0000   -0.0000
    55 N2     *f2-       0.0000   -0.0000   -0.0000   -0.0000   -0.0000   -0.0000   -0.0000    0.0000    0.0000   -0.0000
    56 N2     *f1-      -0.0000    0.0690   -0.0076   -0.0000    0.0000    0.0000    0.1794   -0.6906   -0.0000   -0.0000
    57 N2     *f0       -0.0000   -0.0000   -0.0000   -0.1610    0.1881    0.6831   -0.0000    0.0000    0.2672    0.5615
    58 N2     *f1+       0.0000    0.0076    0.0690   -0.0000    0.0000    0.0000    0.6906    0.1794   -0.0000   -0.0000
    59 N2     *f2+       0.2355    0.0000   -0.0000    0.0000   -0.0000    0.0000   -0.0000   -0.0000   -0.0000    0.0000
    60 N2     *f3+      -0.0000   -0.0000   -0.0000    0.0000    0.0000    0.0000   -0.0000   -0.0000   -0.0000   -0.0000
--

      Von Neumann Entropy (Root   1) =  1.26479


      Mulliken population analysis for root number:  1
      -----------------------------------------------


++    Molecular charges:
      ------------------

      Mulliken charges per centre and basis function type
      ---------------------------------------------------

                N1      N2    
      1s       2.0011  2.0011
      2s       1.9792  1.9793
      2px      0.9215  0.9215
      2pz      1.1203  1.1203
      2py      0.9215  0.9215
      *s      -0.0646 -0.0647
      *px      0.0695  0.0695
      *pz     -0.0574 -0.0574
      *py      0.0695  0.0695
      *d2+     0.0000  0.0000
      *d1+     0.0117  0.0117
      *d0      0.0146  0.0146
      *d1-     0.0117  0.0117
      *d2-     0.0000  0.0000
      *f3+     0.0000  0.0000
      *f2+     0.0000  0.0000
      *f1+     0.0004  0.0004
      *f0      0.0006  0.0006
      *f1-     0.0004  0.0004
      *f2-     0.0000  0.0000
      *f3-     0.0000  0.0000
      Total    7.0000  7.0000

      N-E      0.0000 -0.0000

      Total electronic charge=   14.000000

      Total            charge=   -0.000000
--



      Expectation values of various properties for root number:  1
      -----------------------------------------------------------

      Properties not supported for DMRGSCF 

++    Molecular properties:
      ---------------------

      Charge (e):
                      =   -0.0000
      Dipole Moment (Debye):
      Origin of the operator (Ang)=    0.0000    0.0000    0.0000
                   X=  5.2321E-08               Y= -3.6626E-07               Z= -3.1250E-05           Total=  3.1253E-05
      Quadrupole Moment (Debye*Ang):
      Origin of the operator (Ang)=    0.0000    0.0000    0.8000
                  XX= -1.1644E+01              XY=  2.0873E-09              XZ= -3.4295E-08              YY= -1.1644E+01
                  YZ=  2.9427E-07              ZZ= -1.1910E+01
      In traceless form (Debye*Ang)
                  XX=  1.3332E-01              XY=  3.1309E-09              XZ= -5.1443E-08              YY=  1.3332E-01
                  YZ=  4.4140E-07              ZZ= -2.6664E-01
--


      Input file to MOLDEN was generated!

      Average orbitals are written to the RASORB file
      Natural orbitals for root   1 are written to the RASORB.1 file
      Spin density orbitals for root   1 are written to the SPDORB.1 file

--- Stop Module: dmrgscf at Tue Apr  9 00:42:17 2024 /rc=_RC_ALL_IS_WELL_ ---
*** files: n2.GssOrb n2.guessorb.h5 n2.rasscf.molden n2.guessorb.molden n2.scf.molden n2.RasOrb n2.RasOrb.1 n2.dmrgscf.h5 n2.ScfOrb n2.scf.h5 n2.SpdOrb.1 xmldump
    saved to directory /public/home/xzzeng/work/HQC/N2/cc-pvtz/NO/PES/entropy/1.6/results/work_dir/n2/dmrg
--- Module dmrgscf spent 6 seconds ---

.##################.
.# Happy landing! #.
.##################.

    Timing: Wall=6.43 User=3.21 System=0.24
