[Molden Format]
[N_Atoms]
                    2
[Atoms] (AU)
N1          1      7           0.00000000      0.00000000      0.00000000
N2          2      7           0.00000000      0.00000000      3.02356180
[5D]
[7F]
[Charge] (Mulliken)
   4.2969873712550566E-006
  -4.2969874574083633E-006
[GTO] (AU)
   1
   s  10
  1.142000000E+04  5.229996559E-04
  1.712000000E+03  4.044997339E-03
  3.893000000E+02  2.077498633E-02
  1.100000000E+02  8.072694689E-02
  3.557000000E+01  2.330738467E-01
  1.254000000E+01  4.335007148E-01
  4.644000000E+00  3.474717714E-01
  1.293000000E+00  4.126197285E-02
  5.118000000E-01 -8.507994403E-03
  1.787000000E-01  2.383998432E-03
   s  10
  1.142000000E+04 -1.149999544E-04
  1.712000000E+03 -8.949996452E-04
  3.893000000E+02 -4.623998167E-03
  1.100000000E+02 -1.852799265E-02
  3.557000000E+01 -5.733897727E-02
  1.254000000E+01 -1.320759476E-01
  4.644000000E+00 -1.725099316E-01
  1.293000000E+00  1.518139398E-01
  5.118000000E-01  5.999437621E-01
  1.787000000E-01  3.874618464E-01
   s   1
  1.293000000E+00  1.000000000E+00
   s   1
  1.787000000E-01  1.000000000E+00
   p   5
  2.663000000E+01  1.467000345E-02
  5.948000000E+00  9.176402155E-02
  1.742000000E+00  2.986830701E-01
  5.550000000E-01  4.984871171E-01
  1.725000000E-01  3.370230791E-01
   p   1
  5.550000000E-01  1.000000000E+00
   p   1
  1.725000000E-01  1.000000000E+00
   d   1
  1.654000000E+00  1.000000000E+00
   d   1
  4.690000000E-01  1.000000000E+00
   f   1
  1.093000000E+00  1.000000000E+00
 
   2
   s  10
  1.142000000E+04  5.229996559E-04
  1.712000000E+03  4.044997339E-03
  3.893000000E+02  2.077498633E-02
  1.100000000E+02  8.072694689E-02
  3.557000000E+01  2.330738467E-01
  1.254000000E+01  4.335007148E-01
  4.644000000E+00  3.474717714E-01
  1.293000000E+00  4.126197285E-02
  5.118000000E-01 -8.507994403E-03
  1.787000000E-01  2.383998432E-03
   s  10
  1.142000000E+04 -1.149999544E-04
  1.712000000E+03 -8.949996452E-04
  3.893000000E+02 -4.623998167E-03
  1.100000000E+02 -1.852799265E-02
  3.557000000E+01 -5.733897727E-02
  1.254000000E+01 -1.320759476E-01
  4.644000000E+00 -1.725099316E-01
  1.293000000E+00  1.518139398E-01
  5.118000000E-01  5.999437621E-01
  1.787000000E-01  3.874618464E-01
   s   1
  1.293000000E+00  1.000000000E+00
   s   1
  1.787000000E-01  1.000000000E+00
   p   5
  2.663000000E+01  1.467000345E-02
  5.948000000E+00  9.176402155E-02
  1.742000000E+00  2.986830701E-01
  5.550000000E-01  4.984871171E-01
  1.725000000E-01  3.370230791E-01
   p   1
  5.550000000E-01  1.000000000E+00
   p   1
  1.725000000E-01  1.000000000E+00
   d   1
  1.654000000E+00  1.000000000E+00
   d   1
  4.690000000E-01  1.000000000E+00
   f   1
  1.093000000E+00  1.000000000E+00
 
[MO]
Sym=     1a  
Ene=     0.0000
Spin= Alpha
Occup=    0.00000
   1         0.70255562
   2         0.00060289
   3        -0.00113737
   4        -0.00037959
   5         0.00000000
   6         0.00000000
   7         0.00304590
   8        -0.00000000
   9        -0.00000000
  10        -0.00191821
  11         0.00000000
  12        -0.00000000
  13        -0.00066954
  14         0.00009595
  15         0.00000000
  16         0.00000000
  17        -0.00000000
  18        -0.00000000
  19         0.00023176
  20         0.00000000
  21        -0.00000000
  22         0.00000000
  23         0.00000000
  24         0.00004590
  25         0.00000000
  26         0.00000000
  27        -0.00000000
  28        -0.00000000
  29         0.00000000
  30        -0.00000000
  31         0.71287822
  32         0.00060791
  33        -0.00115153
  34        -0.00039999
  35         0.00000000
  36        -0.00000000
  37        -0.00309761
  38         0.00000000
  39         0.00000000
  40         0.00196858
  41        -0.00000000
  42         0.00000000
  43         0.00069141
  44         0.00009683
  45        -0.00000000
  46         0.00000000
  47         0.00000000
  48        -0.00000000
  49         0.00021952
  50         0.00000000
  51        -0.00000000
  52        -0.00000000
  53         0.00000000
  54        -0.00004210
  55        -0.00000000
  56         0.00000000
  57        -0.00000000
  58        -0.00000000
  59        -0.00000000
  60         0.00000000
Sym=     2a  
Ene=     0.0000
Spin= Alpha
Occup=    0.00000
   1        -0.71237822
   2         0.00102224
   3         0.00035157
   4        -0.00014339
   5         0.00000000
   6        -0.00000000
   7        -0.00359344
   8         0.00000000
   9         0.00000000
  10         0.00351652
  11        -0.00000000
  12        -0.00000000
  13         0.00106841
  14        -0.00006709
  15         0.00000000
  16         0.00000000
  17         0.00000000
  18        -0.00000000
  19         0.00078076
  20         0.00000000
  21        -0.00000000
  22        -0.00000000
  23         0.00000000
  24         0.00027954
  25        -0.00000000
  26        -0.00000000
  27        -0.00000000
  28         0.00000000
  29         0.00000000
  30         0.00000000
  31         0.70206194
  32        -0.00101599
  33        -0.00034245
  34         0.00013917
  35         0.00000000
  36        -0.00000000
  37        -0.00354884
  38        -0.00000000
  39         0.00000000
  40         0.00348775
  41         0.00000000
  42         0.00000000
  43         0.00105929
  44         0.00006575
  45        -0.00000000
  46         0.00000000
  47         0.00000000
  48         0.00000000
  49        -0.00078494
  50        -0.00000000
  51         0.00000000
  52        -0.00000000
  53        -0.00000000
  54         0.00028047
  55        -0.00000000
  56         0.00000000
  57         0.00000000
  58        -0.00000000
  59        -0.00000000
  60         0.00000000
Sym=     3a  
Ene=     0.0000
Spin= Alpha
Occup=    0.00000
   1        -0.00173981
   2         0.66611992
   3         0.00108771
   4        -0.06536635
   5        -0.00000000
   6        -0.00000000
   7         0.12470623
   8         0.00000000
   9         0.00000000
  10         0.00771846
  11        -0.00000000
  12        -0.00000000
  13        -0.02162632
  14         0.00575896
  15         0.00000000
  16         0.00000000
  17        -0.00000000
  18         0.00000000
  19         0.01509169
  20         0.00000000
  21         0.00000000
  22        -0.00000000
  23        -0.00000000
  24         0.00296522
  25         0.00000000
  26         0.00000000
  27        -0.00000000
  28         0.00000000
  29         0.00000000
  30        -0.00000000
  31        -0.00173254
  32         0.66613805
  33         0.00107869
  34        -0.06539078
  35         0.00000000
  36         0.00000000
  37        -0.12470146
  38        -0.00000000
  39        -0.00000000
  40        -0.00772034
  41         0.00000000
  42         0.00000000
  43         0.02163342
  44         0.00575866
  45        -0.00000000
  46         0.00000000
  47         0.00000000
  48        -0.00000000
  49         0.01509095
  50        -0.00000000
  51        -0.00000000
  52         0.00000000
  53        -0.00000000
  54        -0.00296553
  55         0.00000000
  56         0.00000000
  57        -0.00000000
  58         0.00000000
  59        -0.00000000
  60         0.00000000
Sym=     4a  
Ene=     0.0000
Spin= Alpha
Occup=    0.00000
   1        -0.00390297
   2        -0.73358620
   3        -0.00867778
   4         0.00879733
   5         0.00000000
   6        -0.00000000
   7         0.18109324
   8        -0.00000000
   9        -0.00000000
  10        -0.00541649
  11         0.00000000
  12        -0.00000000
  13        -0.02166655
  14         0.00301012
  15         0.00000000
  16        -0.00000000
  17         0.00000000
  18        -0.00000000
  19         0.00434181
  20         0.00000000
  21         0.00000000
  22         0.00000000
  23         0.00000000
  24         0.00017977
  25         0.00000000
  26        -0.00000000
  27         0.00000000
  28        -0.00000000
  29        -0.00000000
  30        -0.00000000
  31         0.00391069
  32         0.73360591
  33         0.00866780
  34        -0.00881150
  35         0.00000000
  36        -0.00000000
  37         0.18108588
  38        -0.00000000
  39        -0.00000000
  40        -0.00541658
  41         0.00000000
  42        -0.00000000
  43        -0.02166248
  44        -0.00301024
  45        -0.00000000
  46         0.00000000
  47         0.00000000
  48        -0.00000000
  49        -0.00434316
  50        -0.00000000
  51        -0.00000000
  52         0.00000000
  53         0.00000000
  54         0.00018005
  55         0.00000000
  56        -0.00000000
  57        -0.00000000
  58        -0.00000000
  59         0.00000000
  60        -0.00000000
Sym=     5a  
Ene=     0.0000
Spin= Alpha
Occup=    0.00000
   1        -0.00169338
   2         0.18351883
   3         0.01019571
   4         0.08285951
   5         0.00000000
   6         0.00000000
   7        -0.65303735
   8         0.00000000
   9         0.00000000
  10         0.00034750
  11        -0.00000000
  12        -0.00000000
  13         0.02438440
  14        -0.00853466
  15        -0.00000000
  16        -0.00000000
  17        -0.00000000
  18         0.00000000
  19        -0.02433264
  20         0.00000000
  21         0.00000000
  22        -0.00000000
  23        -0.00000000
  24        -0.00267008
  25        -0.00000000
  26        -0.00000000
  27        -0.00000000
  28        -0.00000000
  29         0.00000000
  30         0.00000000
  31        -0.00168731
  32         0.18354863
  33         0.01019348
  34         0.08279457
  35        -0.00000000
  36        -0.00000000
  37         0.65300865
  38        -0.00000000
  39        -0.00000000
  40        -0.00033792
  41         0.00000000
  42         0.00000000
  43        -0.02433547
  44        -0.00853339
  45        -0.00000000
  46        -0.00000000
  47        -0.00000000
  48        -0.00000000
  49        -0.02434588
  50         0.00000000
  51         0.00000000
  52         0.00000000
  53        -0.00000000
  54         0.00267194
  55         0.00000000
  56         0.00000000
  57         0.00000000
  58         0.00000000
  59         0.00000000
  60         0.00000000
Sym=     6a  
Ene=     0.0000
Spin= Alpha
Occup=    0.00000
   1        -0.00000000
   2        -0.00000000
   3         0.00000000
   4        -0.00000000
   5        -0.06672300
   6         0.60628756
   7        -0.00000000
   8         0.00056373
   9        -0.00512238
  10         0.00000000
  11        -0.00544508
  12         0.04947745
  13         0.00000000
  14         0.00000000
  15        -0.00069069
  16         0.00627601
  17        -0.00000000
  18         0.00000000
  19         0.00000000
  20        -0.00342217
  21         0.03109600
  22         0.00000000
  23        -0.00000000
  24        -0.00000000
  25        -0.00046032
  26         0.00418279
  27        -0.00000000
  28         0.00000000
  29         0.00000000
  30         0.00000000
  31         0.00000000
  32         0.00000000
  33        -0.00000000
  34        -0.00000000
  35        -0.06672443
  36         0.60630062
  37        -0.00000000
  38         0.00056431
  39        -0.00512772
  40         0.00000000
  41        -0.00544505
  42         0.04947722
  43        -0.00000000
  44        -0.00000000
  45         0.00069074
  46        -0.00627653
  47         0.00000000
  48         0.00000000
  49        -0.00000000
  50         0.00342198
  51        -0.03109428
  52        -0.00000000
  53         0.00000000
  54        -0.00000000
  55        -0.00046034
  56         0.00418295
  57        -0.00000000
  58         0.00000000
  59        -0.00000000
  60        -0.00000002
Sym=     7a  
Ene=     0.0000
Spin= Alpha
Occup=    0.00000
   1         0.00000000
   2         0.00000000
   3        -0.00000000
   4         0.00000000
   5        -0.60628756
   6        -0.06672300
   7         0.00000000
   8         0.00512238
   9         0.00056373
  10        -0.00000000
  11        -0.04947745
  12        -0.00544508
  13        -0.00000000
  14         0.00000000
  15        -0.00627601
  16        -0.00069069
  17        -0.00000000
  18        -0.00000000
  19        -0.00000000
  20        -0.03109600
  21        -0.00342217
  22         0.00000000
  23         0.00000000
  24        -0.00000000
  25        -0.00418279
  26        -0.00046032
  27        -0.00000000
  28        -0.00000000
  29         0.00000000
  30        -0.00000000
  31        -0.00000000
  32         0.00000000
  33         0.00000000
  34         0.00000000
  35        -0.60630062
  36        -0.06672443
  37         0.00000000
  38         0.00512772
  39         0.00056431
  40        -0.00000000
  41        -0.04947722
  42        -0.00544505
  43        -0.00000000
  44        -0.00000000
  45         0.00627653
  46         0.00069074
  47        -0.00000000
  48         0.00000000
  49         0.00000000
  50         0.03109428
  51         0.00342198
  52        -0.00000000
  53        -0.00000000
  54        -0.00000000
  55        -0.00418295
  56        -0.00046034
  57        -0.00000000
  58         0.00000000
  59        -0.00000002
  60         0.00000000
Sym=     8a  
Ene=     0.0000
Spin= Alpha
Occup=    0.00000
   1        -0.00000000
   2         0.00000000
   3         0.00000000
   4         0.00000000
   5        -0.58550947
   6        -0.34821283
   7        -0.00000000
   8         0.02224051
   9         0.01322682
  10         0.00000000
  11        -0.15684650
  12        -0.09327939
  13        -0.00000000
  14        -0.00000000
  15         0.00312526
  16         0.00185865
  17         0.00000000
  18         0.00000000
  19        -0.00000000
  20         0.00926683
  21         0.00551115
  22         0.00000000
  23         0.00000000
  24         0.00000000
  25         0.00176936
  26         0.00105227
  27        -0.00000000
  28        -0.00000000
  29         0.00000001
  30        -0.00000000
  31        -0.00000000
  32        -0.00000000
  33         0.00000000
  34         0.00000000
  35         0.58551014
  36         0.34821323
  37         0.00000000
  38        -0.02224431
  39        -0.01322908
  40        -0.00000000
  41         0.15684331
  42         0.09327749
  43         0.00000000
  44        -0.00000000
  45         0.00312506
  46         0.00185853
  47         0.00000000
  48         0.00000000
  49        -0.00000000
  50         0.00926783
  51         0.00551174
  52         0.00000000
  53         0.00000000
  54        -0.00000000
  55        -0.00176918
  56        -0.00105217
  57         0.00000000
  58         0.00000000
  59         0.00000000
  60        -0.00000000
Sym=     9a  
Ene=     0.0000
Spin= Alpha
Occup=    0.00000
   1        -0.00000000
   2         0.00000000
   3         0.00000000
   4        -0.00000000
   5         0.34821283
   6        -0.58550947
   7        -0.00000000
   8        -0.01322682
   9         0.02224051
  10         0.00000000
  11         0.09327939
  12        -0.15684650
  13        -0.00000000
  14         0.00000000
  15        -0.00185865
  16         0.00312526
  17        -0.00000000
  18         0.00000000
  19         0.00000000
  20        -0.00551115
  21         0.00926683
  22        -0.00000000
  23         0.00000000
  24        -0.00000000
  25        -0.00105227
  26         0.00176936
  27         0.00000000
  28        -0.00000000
  29        -0.00000000
  30        -0.00000001
  31        -0.00000000
  32         0.00000000
  33         0.00000000
  34         0.00000000
  35        -0.34821323
  36         0.58551014
  37         0.00000000
  38         0.01322908
  39        -0.02224431
  40         0.00000000
  41        -0.09327749
  42         0.15684331
  43        -0.00000000
  44         0.00000000
  45        -0.00185853
  46         0.00312506
  47        -0.00000000
  48         0.00000000
  49         0.00000000
  50        -0.00551174
  51         0.00926783
  52        -0.00000000
  53         0.00000000
  54         0.00000000
  55         0.00105217
  56        -0.00176918
  57        -0.00000000
  58         0.00000000
  59        -0.00000000
  60        -0.00000000
Sym=    10a  
Ene=     0.0000
Spin= Alpha
Occup=    0.00000
   1         0.00107117
   2         0.35683524
   3         0.00069333
   4         0.71342205
   5         0.00000000
   6         0.00000000
   7         0.65729829
   8        -0.00000000
   9        -0.00000000
  10        -0.02958751
  11         0.00000000
  12         0.00000000
  13         0.75928388
  14        -0.01767081
  15         0.00000000
  16         0.00000000
  17        -0.00000000
  18         0.00000000
  19         0.02408049
  20        -0.00000000
  21         0.00000000
  22        -0.00000000
  23        -0.00000000
  24         0.00251642
  25         0.00000000
  26         0.00000000
  27        -0.00000000
  28        -0.00000000
  29        -0.00000000
  30        -0.00000000
  31        -0.00107670
  32        -0.35685790
  33        -0.00068726
  34        -0.71338329
  35         0.00000000
  36         0.00000000
  37         0.65728849
  38        -0.00000000
  39        -0.00000000
  40        -0.02961516
  41         0.00000000
  42         0.00000000
  43         0.75934909
  44         0.01767261
  45        -0.00000000
  46        -0.00000000
  47        -0.00000000
  48         0.00000000
  49        -0.02408270
  50         0.00000000
  51        -0.00000000
  52        -0.00000000
  53        -0.00000000
  54         0.00251747
  55         0.00000000
  56         0.00000000
  57         0.00000000
  58         0.00000000
  59         0.00000000
  60        -0.00000000
Sym=    11a  
Ene=     0.0000
Spin= Alpha
Occup=    0.00000
   1         0.02035503
   2         0.16469772
   3        -0.03948221
   4         1.20649372
   5         0.00000000
   6         0.00000000
   7        -0.61521161
   8         0.00000000
   9         0.00000000
  10        -0.16386114
  11        -0.00000000
  12        -0.00000000
  13         1.93024806
  14        -0.02640635
  15         0.00000000
  16         0.00000000
  17         0.00000000
  18         0.00000000
  19         0.26845745
  20         0.00000000
  21         0.00000000
  22         0.00000000
  23        -0.00000000
  24         0.02397010
  25        -0.00000000
  26        -0.00000000
  27         0.00000000
  28         0.00000000
  29        -0.00000000
  30         0.00000000
  31        -0.02041161
  32        -0.16502305
  33         0.03949943
  34        -1.20601697
  35         0.00000000
  36         0.00000000
  37        -0.61539022
  38         0.00000000
  39         0.00000000
  40        -0.16413728
  41        -0.00000000
  42        -0.00000000
  43         1.93087093
  44         0.02641859
  45        -0.00000000
  46        -0.00000000
  47        -0.00000000
  48         0.00000000
  49        -0.26844307
  50        -0.00000000
  51        -0.00000000
  52         0.00000000
  53        -0.00000000
  54         0.02397509
  55        -0.00000000
  56         0.00000000
  57        -0.00000000
  58        -0.00000000
  59        -0.00000000
  60        -0.00000000
Sym=    12a  
Ene=     0.0000
Spin= Alpha
Occup=    0.00000
   1         0.00000000
   2        -0.00000000
   3        -0.00000000
   4         0.00000000
   5        -0.16235513
   6        -0.45305285
   7        -0.00000000
   8        -0.12084422
   9        -0.33721644
  10        -0.00000000
  11         0.30185252
  12         0.84232107
  13         0.00000000
  14        -0.00000000
  15         0.00034804
  16         0.00097122
  17         0.00000000
  18         0.00000000
  19         0.00000000
  20        -0.02379136
  21        -0.06638993
  22         0.00000000
  23         0.00000000
  24         0.00000000
  25        -0.00204656
  26        -0.00571094
  27         0.00000000
  28        -0.00000000
  29        -0.00000001
  30         0.00000003
  31        -0.00000000
  32        -0.00000000
  33         0.00000000
  34        -0.00000000
  35        -0.16235453
  36        -0.45305119
  37        -0.00000000
  38        -0.12084082
  39        -0.33720695
  40        -0.00000000
  41         0.30184815
  42         0.84230888
  43         0.00000000
  44         0.00000000
  45        -0.00034781
  46        -0.00097055
  47        -0.00000000
  48        -0.00000000
  49        -0.00000000
  50         0.02378968
  51         0.06638524
  52        -0.00000000
  53        -0.00000000
  54         0.00000000
  55        -0.00204650
  56        -0.00571076
  57         0.00000000
  58        -0.00000000
  59        -0.00000001
  60         0.00000004
Sym=    13a  
Ene=     0.0000
Spin= Alpha
Occup=    0.00000
   1        -0.00000000
   2        -0.00000000
   3         0.00000000
   4        -0.00000000
   5         0.45305285
   6        -0.16235513
   7         0.00000000
   8         0.33721644
   9        -0.12084422
  10         0.00000000
  11        -0.84232107
  12         0.30185252
  13        -0.00000000
  14         0.00000000
  15        -0.00097122
  16         0.00034804
  17        -0.00000000
  18         0.00000000
  19        -0.00000000
  20         0.06638993
  21        -0.02379136
  22        -0.00000000
  23         0.00000000
  24        -0.00000000
  25         0.00571094
  26        -0.00204656
  27         0.00000000
  28         0.00000000
  29         0.00000003
  30         0.00000001
  31        -0.00000000
  32        -0.00000000
  33        -0.00000000
  34         0.00000000
  35         0.45305119
  36        -0.16235453
  37         0.00000000
  38         0.33720695
  39        -0.12084082
  40         0.00000000
  41        -0.84230888
  42         0.30184815
  43        -0.00000000
  44        -0.00000000
  45         0.00097055
  46        -0.00034781
  47         0.00000000
  48        -0.00000000
  49         0.00000000
  50        -0.06638524
  51         0.02378968
  52         0.00000000
  53        -0.00000000
  54        -0.00000000
  55         0.00571076
  56        -0.00204650
  57         0.00000000
  58         0.00000000
  59         0.00000004
  60         0.00000001
Sym=    14a  
Ene=     0.0000
Spin= Alpha
Occup=    0.00000
   1        -0.15887868
   2        -0.84196768
   3         0.04434420
   4         1.06375813
   5        -0.00000000
   6         0.00000000
   7         0.29905865
   8        -0.00000000
   9         0.00000000
  10         0.35020146
  11         0.00000000
  12         0.00000000
  13        -0.90908411
  14         0.01666885
  15        -0.00000000
  16        -0.00000000
  17        -0.00000000
  18         0.00000000
  19        -0.00188422
  20         0.00000000
  21         0.00000000
  22        -0.00000000
  23        -0.00000000
  24        -0.00765142
  25         0.00000000
  26         0.00000000
  27        -0.00000000
  28        -0.00000000
  29         0.00000000
  30         0.00000000
  31        -0.15883773
  32        -0.84170877
  33         0.04433297
  34         1.06412506
  35        -0.00000000
  36         0.00000000
  37        -0.29871674
  38        -0.00000000
  39         0.00000000
  40        -0.35008237
  41        -0.00000000
  42        -0.00000000
  43         0.90805712
  44         0.01665996
  45        -0.00000000
  46        -0.00000000
  47         0.00000000
  48         0.00000000
  49        -0.00178177
  50         0.00000000
  51        -0.00000000
  52        -0.00000000
  53         0.00000000
  54         0.00764386
  55        -0.00000000
  56        -0.00000000
  57        -0.00000000
  58        -0.00000000
  59         0.00000000
  60        -0.00000000
Sym=    15a  
Ene=     0.0000
Spin= Alpha
Occup=    0.00000
   1         0.30044755
   2         1.40630863
   3        -0.08600928
   4        -1.28063597
   5        -0.00000000
   6        -0.00000000
   7         0.10405283
   8        -0.00000000
   9        -0.00000000
  10         0.22243168
  11         0.00000000
  12         0.00000000
  13        -0.49199125
  14         0.00763993
  15        -0.00000000
  16        -0.00000000
  17        -0.00000000
  18         0.00000000
  19         0.17652243
  20         0.00000000
  21         0.00000000
  22         0.00000000
  23        -0.00000000
  24         0.00153908
  25         0.00000000
  26         0.00000000
  27        -0.00000000
  28        -0.00000000
  29         0.00000000
  30         0.00000000
  31         0.30054742
  32         1.40669414
  33        -0.08606299
  34        -1.28120176
  35         0.00000000
  36         0.00000000
  37        -0.10399155
  38         0.00000000
  39         0.00000000
  40        -0.22239656
  41        -0.00000000
  42        -0.00000000
  43         0.49203763
  44         0.00764243
  45        -0.00000000
  46        -0.00000000
  47        -0.00000000
  48         0.00000000
  49         0.17650125
  50         0.00000000
  51         0.00000000
  52         0.00000000
  53        -0.00000000
  54        -0.00153492
  55        -0.00000000
  56        -0.00000000
  57        -0.00000000
  58        -0.00000000
  59        -0.00000000
  60         0.00000000
Sym=    16a  
Ene=     0.0000
Spin= Alpha
Occup=    0.00000
   1         0.00000000
   2         0.00000000
   3        -0.00000000
   4        -0.00000000
   5         0.48342228
   6        -0.05869337
   7         0.00000000
   8         0.36203886
   9        -0.04395594
  10         0.00000000
  11        -1.30993661
  12         0.15904230
  13        -0.00000000
  14         0.00000000
  15         0.01126347
  16        -0.00136752
  17        -0.00000000
  18         0.00000000
  19         0.00000000
  20        -0.02259756
  21         0.00274362
  22         0.00000000
  23         0.00000000
  24         0.00000000
  25        -0.00893286
  26         0.00108456
  27         0.00000000
  28         0.00000000
  29        -0.00000002
  30        -0.00000000
  31         0.00000000
  32         0.00000000
  33        -0.00000000
  34        -0.00000000
  35        -0.48343520
  36         0.05869494
  37        -0.00000000
  38        -0.36203846
  39         0.04395589
  40        -0.00000000
  41         1.30994913
  42        -0.15904382
  43         0.00000000
  44         0.00000000
  45         0.01126419
  46        -0.00136761
  47        -0.00000000
  48         0.00000000
  49         0.00000000
  50        -0.02260332
  51         0.00274432
  52        -0.00000000
  53        -0.00000000
  54        -0.00000000
  55         0.00893258
  56        -0.00108452
  57        -0.00000000
  58        -0.00000000
  59        -0.00000004
  60        -0.00000001
Sym=    17a  
Ene=     0.0000
Spin= Alpha
Occup=    0.00000
   1         0.00000000
   2         0.00000000
   3        -0.00000000
   4        -0.00000000
   5         0.05869337
   6         0.48342228
   7         0.00000000
   8         0.04395594
   9         0.36203886
  10         0.00000000
  11        -0.15904230
  12        -1.30993661
  13        -0.00000000
  14         0.00000000
  15         0.00136752
  16         0.01126347
  17         0.00000000
  18        -0.00000000
  19         0.00000000
  20        -0.00274362
  21        -0.02259756
  22        -0.00000000
  23         0.00000000
  24        -0.00000000
  25        -0.00108456
  26        -0.00893286
  27        -0.00000000
  28         0.00000000
  29        -0.00000000
  30         0.00000002
  31         0.00000000
  32         0.00000000
  33        -0.00000000
  34        -0.00000000
  35        -0.05869494
  36        -0.48343520
  37        -0.00000000
  38        -0.04395589
  39        -0.36203846
  40        -0.00000000
  41         0.15904382
  42         1.30994913
  43         0.00000000
  44         0.00000000
  45         0.00136761
  46         0.01126419
  47        -0.00000000
  48        -0.00000000
  49         0.00000000
  50        -0.00274432
  51        -0.02260332
  52         0.00000000
  53        -0.00000000
  54         0.00000000
  55         0.00108452
  56         0.00893258
  57         0.00000000
  58        -0.00000000
  59        -0.00000001
  60         0.00000004
Sym=    18a  
Ene=     0.0000
Spin= Alpha
Occup=    0.00000
   1        -0.44626463
   2        -2.01191147
   3         0.03394657
   4         4.29066089
   5        -0.00000000
   6         0.00000000
   7        -0.15469449
   8        -0.00000000
   9        -0.00000000
  10         0.04915736
  11         0.00000000
  12         0.00000000
  13         1.86229251
  14        -0.02552219
  15        -0.00000000
  16        -0.00000000
  17         0.00000000
  18         0.00000000
  19         0.08294744
  20         0.00000000
  21         0.00000000
  22         0.00000000
  23         0.00000000
  24         0.03742210
  25        -0.00000000
  26        -0.00000000
  27         0.00000000
  28         0.00000000
  29        -0.00000000
  30         0.00000000
  31         0.44628785
  32         2.01192561
  33        -0.03399809
  34        -4.29065555
  35        -0.00000000
  36         0.00000000
  37        -0.15463709
  38        -0.00000000
  39        -0.00000000
  40         0.04915219
  41         0.00000000
  42         0.00000000
  43         1.86219808
  44         0.02552071
  45         0.00000000
  46         0.00000000
  47        -0.00000000
  48        -0.00000000
  49        -0.08301082
  50        -0.00000000
  51        -0.00000000
  52         0.00000000
  53         0.00000000
  54         0.03742425
  55        -0.00000000
  56        -0.00000000
  57         0.00000000
  58         0.00000000
  59        -0.00000000
  60        -0.00000000
Sym=    19a  
Ene=     0.0000
Spin= Alpha
Occup=    0.00000
   1        -0.00000000
   2        -0.00000000
   3         0.00000000
   4         0.00000000
   5         0.19559448
   6         0.00505651
   7        -0.00000000
   8        -0.00016593