[Molden Format]
[N_Atoms]
                    2
[Atoms] (AU)
N1          1      7           0.00000000      0.00000000      0.00000000
N2          2      7           0.00000000      0.00000000      2.05980148
[5D]
[7F]
[Charge] (Mulliken)
   0.0000000000000000     
   0.0000000000000000     
[GTO] (AU)
   1
   s  10
  1.142000000E+04  5.229996559E-04
  1.712000000E+03  4.044997339E-03
  3.893000000E+02  2.077498633E-02
  1.100000000E+02  8.072694689E-02
  3.557000000E+01  2.330738467E-01
  1.254000000E+01  4.335007148E-01
  4.644000000E+00  3.474717714E-01
  1.293000000E+00  4.126197285E-02
  5.118000000E-01 -8.507994403E-03
  1.787000000E-01  2.383998432E-03
   s  10
  1.142000000E+04 -1.149999544E-04
  1.712000000E+03 -8.949996452E-04
  3.893000000E+02 -4.623998167E-03
  1.100000000E+02 -1.852799265E-02
  3.557000000E+01 -5.733897727E-02
  1.254000000E+01 -1.320759476E-01
  4.644000000E+00 -1.725099316E-01
  1.293000000E+00  1.518139398E-01
  5.118000000E-01  5.999437621E-01
  1.787000000E-01  3.874618464E-01
   s   1
  1.293000000E+00  1.000000000E+00
   s   1
  1.787000000E-01  1.000000000E+00
   p   5
  2.663000000E+01  1.467000345E-02
  5.948000000E+00  9.176402155E-02
  1.742000000E+00  2.986830701E-01
  5.550000000E-01  4.984871171E-01
  1.725000000E-01  3.370230791E-01
   p   1
  5.550000000E-01  1.000000000E+00
   p   1
  1.725000000E-01  1.000000000E+00
   d   1
  1.654000000E+00  1.000000000E+00
   d   1
  4.690000000E-01  1.000000000E+00
   f   1
  1.093000000E+00  1.000000000E+00
 
   2
   s  10
  1.142000000E+04  5.229996559E-04
  1.712000000E+03  4.044997339E-03
  3.893000000E+02  2.077498633E-02
  1.100000000E+02  8.072694689E-02
  3.557000000E+01  2.330738467E-01
  1.254000000E+01  4.335007148E-01
  4.644000000E+00  3.474717714E-01
  1.293000000E+00  4.126197285E-02
  5.118000000E-01 -8.507994403E-03
  1.787000000E-01  2.383998432E-03
   s  10
  1.142000000E+04 -1.149999544E-04
  1.712000000E+03 -8.949996452E-04
  3.893000000E+02 -4.623998167E-03
  1.100000000E+02 -1.852799265E-02
  3.557000000E+01 -5.733897727E-02
  1.254000000E+01 -1.320759476E-01
  4.644000000E+00 -1.725099316E-01
  1.293000000E+00  1.518139398E-01
  5.118000000E-01  5.999437621E-01
  1.787000000E-01  3.874618464E-01
   s   1
  1.293000000E+00  1.000000000E+00
   s   1
  1.787000000E-01  1.000000000E+00
   p   5
  2.663000000E+01  1.467000345E-02
  5.948000000E+00  9.176402155E-02
  1.742000000E+00  2.986830701E-01
  5.550000000E-01  4.984871171E-01
  1.725000000E-01  3.370230791E-01
   p   1
  5.550000000E-01  1.000000000E+00
   p   1
  1.725000000E-01  1.000000000E+00
   d   1
  1.654000000E+00  1.000000000E+00
   d   1
  4.690000000E-01  1.000000000E+00
   f   1
  1.093000000E+00  1.000000000E+00
 
[MO]
Sym=     1a  
Ene=   -15.6620
Spin= Alpha
Occup=    2.00000
   1         0.70676500
   2         0.00634503
   3        -0.00162137
   4         0.00195938
   5        -0.00000000
   6         0.00000000
   7         0.00294879
   8         0.00000000
   9        -0.00000000
  10        -0.00005149
  11         0.00000000
  12         0.00000000
  13        -0.00013726
  14         0.00000000
  15         0.00000000
  16        -0.00000000
  17         0.00000000
  18         0.00000000
  19        -0.00000000
  20         0.00000000
  21        -0.00000000
  22        -0.00000000
  23         0.00000000
  24         0.00000000
  25         0.00000000
  26        -0.00000000
  27         0.00000000
  28        -0.00000000
  29        -0.00000000
  30         0.00000000
  31         0.70676500
  32         0.00634503
  33        -0.00162137
  34         0.00195938
  35         0.00000000
  36        -0.00000000
  37        -0.00294879
  38        -0.00000000
  39         0.00000000
  40         0.00005149
  41        -0.00000000
  42         0.00000000
  43         0.00013726
  44        -0.00000000
  45         0.00000000
  46        -0.00000000
  47         0.00000000
  48         0.00000000
  49         0.00000000
  50         0.00000000
  51        -0.00000000
  52        -0.00000000
  53         0.00000000
  54        -0.00000000
  55        -0.00000000
  56         0.00000000
  57        -0.00000000
  58         0.00000000
  59        -0.00000000
  60         0.00000000
Sym=     2a  
Ene=   -15.6260
Spin= Alpha
Occup=    2.00000
   1        -0.70768063
   2        -0.00081791
   3         0.00167895
   4        -0.00192976
   5         0.00000000
   6         0.00000000
   7         0.00280653
   8        -0.00000000
   9        -0.00000000
  10        -0.00004901
  11        -0.00000000
  12        -0.00000000
  13        -0.00013064
  14         0.00000000
  15         0.00000000
  16        -0.00000000
  17        -0.00000000
  18        -0.00000000
  19         0.00000000
  20        -0.00000000
  21        -0.00000000
  22         0.00000000
  23         0.00000000
  24         0.00000000
  25        -0.00000000
  26        -0.00000000
  27         0.00000000
  28         0.00000000
  29         0.00000000
  30        -0.00000000
  31         0.70768063
  32         0.00081791
  33        -0.00167895
  34         0.00192976
  35        -0.00000000
  36        -0.00000000
  37         0.00280653
  38         0.00000000
  39         0.00000000
  40        -0.00004901
  41         0.00000000
  42         0.00000000
  43        -0.00013064
  44        -0.00000000
  45        -0.00000000
  46         0.00000000
  47         0.00000000
  48         0.00000000
  49        -0.00000000
  50        -0.00000000
  51        -0.00000000
  52        -0.00000000
  53        -0.00000000
  54         0.00000000
  55         0.00000000
  56         0.00000000
  57         0.00000000
  58         0.00000000
  59        -0.00000000
  60        -0.00000000
Sym=     3a  
Ene=    -1.5140
Spin= Alpha
Occup=    2.00000
   1        -0.05985522
   2         0.51150219
   3         0.00526904
   4         0.00280835
   5         0.00000000
   6        -0.00000000
   7         0.17138860
   8        -0.00000000
   9         0.00000000
  10        -0.00299286
  11        -0.00000000
  12         0.00000000
  13        -0.00797768
  14        -0.00000000
  15         0.00000000
  16         0.00000000
  17        -0.00000000
  18        -0.00000000
  19        -0.00000000
  20        -0.00000000
  21         0.00000000
  22         0.00000000
  23        -0.00000000
  24        -0.00000000
  25        -0.00000000
  26         0.00000000
  27        -0.00000000
  28         0.00000000
  29         0.00000000
  30         0.00000000
  31        -0.05985522
  32         0.51150219
  33         0.00526904
  34         0.00280835
  35        -0.00000000
  36         0.00000000
  37        -0.17138860
  38         0.00000000
  39        -0.00000000
  40         0.00299286
  41         0.00000000
  42        -0.00000000
  43         0.00797768
  44         0.00000000
  45         0.00000000
  46         0.00000000
  47        -0.00000000
  48        -0.00000000
  49         0.00000000
  50        -0.00000000
  51         0.00000000
  52         0.00000000
  53        -0.00000000
  54        -0.00000000
  55         0.00000000
  56        -0.00000000
  57         0.00000000
  58        -0.00000000
  59         0.00000000
  60         0.00000000
Sym=     4a  
Ene=    -0.8096
Spin= Alpha
Occup=    2.00000
   1         0.01288661
   2        -0.56074341
   3        -0.00565056
   4        -0.00322214
   5         0.00000000
   6        -0.00000000
   7         0.41890138
   8        -0.00000000
   9         0.00000000
  10        -0.00731503
  11        -0.00000000
  12         0.00000000
  13        -0.01949874
  14         0.00000000
  15        -0.00000000
  16        -0.00000000
  17         0.00000000
  18        -0.00000000
  19         0.00000000
  20        -0.00000000
  21        -0.00000000
  22        -0.00000000
  23        -0.00000000
  24         0.00000000
  25        -0.00000000
  26        -0.00000000
  27        -0.00000000
  28        -0.00000000
  29        -0.00000000
  30         0.00000000
  31        -0.01288661
  32         0.56074341
  33         0.00565056
  34         0.00322214
  35        -0.00000000
  36        -0.00000000
  37         0.41890138
  38         0.00000000
  39         0.00000000
  40        -0.00731503
  41         0.00000000
  42        -0.00000000
  43        -0.01949874
  44        -0.00000000
  45        -0.00000000
  46         0.00000000
  47        -0.00000000
  48        -0.00000000
  49        -0.00000000
  50        -0.00000000
  51        -0.00000000
  52         0.00000000
  53         0.00000000
  54         0.00000000
  55         0.00000000
  56         0.00000000
  57        -0.00000000
  58        -0.00000000
  59         0.00000000
  60        -0.00000000
Sym=     5a  
Ene=    -0.7592
Spin= Alpha
Occup=    2.00000
   1         0.00000000
   2         0.00000000
   3        -0.00000000
   4         0.00000000
   5         0.04444236
   6         0.64438886
   7        -0.00000000
   8        -0.00077607
   9        -0.01125258
  10         0.00000000
  11        -0.00206867
  12        -0.02999458
  13         0.00000000
  14         0.00000000
  15        -0.00000000
  16        -0.00000000
  17        -0.00000000
  18         0.00000000
  19         0.00000000
  20        -0.00000000
  21        -0.00000000
  22         0.00000000
  23        -0.00000000
  24         0.00000000
  25        -0.00000000
  26        -0.00000000
  27        -0.00000000
  28        -0.00000000
  29         0.00000000
  30         0.00000000
  31        -0.00000000
  32        -0.00000000
  33         0.00000000
  34        -0.00000000
  35         0.04444236
  36         0.64438886
  37        -0.00000000
  38        -0.00077607
  39        -0.01125258
  40         0.00000000
  41        -0.00206867
  42        -0.02999458
  43         0.00000000
  44        -0.00000000
  45        -0.00000000
  46        -0.00000000
  47        -0.00000000
  48        -0.00000000
  49        -0.00000000
  50        -0.00000000
  51        -0.00000000
  52        -0.00000000
  53         0.00000000
  54         0.00000000
  55         0.00000000
  56         0.00000000
  57         0.00000000
  58         0.00000000
  59         0.00000000
  60        -0.00000000
Sym=     6a  
Ene=    -0.7592
Spin= Alpha
Occup=    2.00000
   1         0.00000000
   2         0.00000000
   3        -0.00000000
   4        -0.00000000
   5         0.64438886
   6        -0.04444236
   7        -0.00000000
   8        -0.01125258
   9         0.00077607
  10         0.00000000
  11        -0.02999458
  12         0.00206867
  13        -0.00000000
  14         0.00000000
  15        -0.00000000
  16        -0.00000000
  17        -0.00000000
  18        -0.00000000
  19         0.00000000
  20         0.00000000
  21        -0.00000000
  22        -0.00000000
  23         0.00000000
  24         0.00000000
  25        -0.00000000
  26        -0.00000000
  27         0.00000000
  28         0.00000000
  29         0.00000000
  30        -0.00000000
  31        -0.00000000
  32        -0.00000000
  33         0.00000000
  34         0.00000000
  35         0.64438886
  36        -0.04444236
  37        -0.00000000
  38        -0.01125258
  39         0.00077607
  40         0.00000000
  41        -0.02999458
  42         0.00206867
  43        -0.00000000
  44        -0.00000000
  45        -0.00000000
  46         0.00000000
  47         0.00000000
  48         0.00000000
  49         0.00000000
  50        -0.00000000
  51        -0.00000000
  52         0.00000000
  53        -0.00000000
  54         0.00000000
  55         0.00000000
  56         0.00000000
  57         0.00000000
  58         0.00000000
  59         0.00000000
  60         0.00000000
Sym=     7a  
Ene=    -0.5629
Spin= Alpha
Occup=    2.00000
   1         0.04371068
   2         0.33983957
   3         0.00330171
   4         0.00209293
   5        -0.00000000
   6         0.00000000
   7        -0.69531264
   8         0.00000000
   9        -0.00000000
  10         0.01214183
  11        -0.00000000
  12        -0.00000000
  13         0.03236495
  14        -0.00000000
  15         0.00000000
  16        -0.00000000
  17         0.00000000
  18        -0.00000000
  19        -0.00000000
  20         0.00000000
  21        -0.00000000
  22        -0.00000000
  23        -0.00000000
  24        -0.00000000
  25        -0.00000000
  26        -0.00000000
  27         0.00000000
  28         0.00000000
  29        -0.00000000
  30         0.00000000
  31         0.04371068
  32         0.33983957
  33         0.00330171
  34         0.00209293
  35        -0.00000000
  36        -0.00000000
  37         0.69531264
  38         0.00000000
  39         0.00000000
  40        -0.01214183
  41         0.00000000
  42         0.00000000
  43        -0.03236495
  44         0.00000000
  45         0.00000000
  46        -0.00000000
  47         0.00000000
  48        -0.00000000
  49         0.00000000
  50         0.00000000
  51        -0.00000000
  52        -0.00000000
  53        -0.00000000
  54        -0.00000000
  55        -0.00000000
  56         0.00000000
  57         0.00000000
  58        -0.00000000
  59        -0.00000000
  60        -0.00000000
Sym=     8a  
Ene=    -0.3819
Spin= Alpha
Occup=    0.00000
   1         0.00000000
   2         0.00000000
   3        -0.00000000
   4         0.00000000
   5        -0.82443750
   6        -0.38686871
   7        -0.00000000
   8         0.01439667
   9         0.00675566
  10         0.00000000
  11         0.03837537
  12         0.01800771
  13         0.00000000
  14         0.00000000
  15         0.00000000
  16         0.00000000
  17        -0.00000000
  18        -0.00000000
  19         0.00000000
  20        -0.00000000
  21        -0.00000000
  22        -0.00000000
  23         0.00000000
  24         0.00000000
  25        -0.00000000
  26        -0.00000000
  27        -0.00000000
  28         0.00000000
  29         0.00000000
  30         0.00000000
  31        -0.00000000
  32        -0.00000000
  33         0.00000000
  34        -0.00000000
  35         0.82443750
  36         0.38686871
  37        -0.00000000
  38        -0.01439667
  39        -0.00675566
  40         0.00000000
  41        -0.03837537
  42        -0.01800771
  43         0.00000000
  44        -0.00000000
  45        -0.00000000
  46        -0.00000000
  47        -0.00000000
  48         0.00000000
  49        -0.00000000
  50        -0.00000000
  51        -0.00000000
  52         0.00000000
  53        -0.00000000
  54         0.00000000
  55         0.00000000
  56         0.00000000
  57        -0.00000000
  58         0.00000000
  59        -0.00000000
  60        -0.00000000
Sym=     9a  
Ene=    -0.3819
Spin= Alpha
Occup=    0.00000
   1         0.00000000
   2         0.00000000
   3        -0.00000000
   4         0.00000000
   5         0.38686871
   6        -0.82443750
   7        -0.00000000
   8        -0.00675566
   9         0.01439667
  10         0.00000000
  11        -0.01800771
  12         0.03837537
  13         0.00000000
  14         0.00000000
  15        -0.00000000
  16        -0.00000000
  17        -0.00000000
  18        -0.00000000
  19         0.00000000
  20         0.00000000
  21        -0.00000000
  22        -0.00000000
  23        -0.00000000
  24         0.00000000
  25         0.00000000
  26        -0.00000000
  27         0.00000000
  28         0.00000000
  29         0.00000000
  30        -0.00000000
  31        -0.00000000
  32        -0.00000000
  33         0.00000000
  34        -0.00000000
  35        -0.38686871
  36         0.82443750
  37        -0.00000000
  38         0.00675566
  39        -0.01439667
  40         0.00000000
  41         0.01800771
  42        -0.03837537
  43         0.00000000
  44        -0.00000000
  45         0.00000000
  46        -0.00000000
  47         0.00000000
  48        -0.00000000
  49        -0.00000000
  50         0.00000000
  51        -0.00000000
  52        -0.00000000
  53        -0.00000000
  54         0.00000000
  55        -0.00000000
  56         0.00000000
  57        -0.00000000
  58         0.00000000
  59        -0.00000000
  60        -0.00000000
Sym=    10a  
Ene=    -0.1254
Spin= Alpha
Occup=    0.00000
   1         0.18022199
   2         1.28550187
   3         0.01245380
   4         0.00795734
   5        -0.00000000
   6        -0.00000000
   7         1.17999426
   8        -0.00000000
   9         0.00000000
  10        -0.02060554
  11        -0.00000000
  12         0.00000000
  13        -0.05492559
  14         0.00000000
  15         0.00000000
  16         0.00000000
  17         0.00000000
  18        -0.00000000
  19         0.00000000
  20        -0.00000000
  21         0.00000000
  22        -0.00000000
  23        -0.00000000
  24         0.00000000
  25        -0.00000000
  26         0.00000000
  27         0.00000000
  28         0.00000000
  29         0.00000000
  30         0.00000000
  31        -0.18022199
  32        -1.28550187
  33        -0.01245380
  34        -0.00795734
  35        -0.00000000
  36        -0.00000000
  37         1.17999426
  38         0.00000000
  39         0.00000000
  40        -0.02060554
  41         0.00000000
  42        -0.00000000
  43        -0.05492559
  44        -0.00000000
  45        -0.00000000
  46        -0.00000000
  47         0.00000000
  48        -0.00000000
  49        -0.00000000
  50        -0.00000000
  51         0.00000000
  52         0.00000000
  53        -0.00000000
  54         0.00000000
  55         0.00000000
  56        -0.00000000
  57        -0.00000000
  58        -0.00000000
  59        -0.00000000
  60        -0.00000000
Sym=    11a  
Ene=     3.7144
Spin= Alpha
Occup=    0.00000
   1        -0.01376055
   2        -0.03626359
   3         0.04605158
   4       -10.70415343
   5        -0.00000000
   6        -0.00000000
   7         0.13525974
   8         0.00000000
   9         0.00000000
  10        -0.60585681
  11        -0.00000000
  12        -0.00000000
  13        -5.28318297
  14         0.00099198
  15         0.00000000
  16         0.00000000
  17         0.00000000
  18         0.00000000
  19        -0.75003571
  20        -0.00000000
  21        -0.00000000
  22         0.00000000
  23        -0.00000000
  24        -0.06203451
  25        -0.00000000
  26        -0.00000000
  27         0.00000000
  28         0.00000000
  29        -0.00000000
  30        -0.00000000
  31         0.01376055
  32         0.03626359
  33        -0.04605158
  34        10.70415343
  35        -0.00000000
  36         0.00000000
  37         0.13525974
  38         0.00000000
  39        -0.00000000
  40        -0.60585681
  41        -0.00000000
  42         0.00000000
  43        -5.28318297
  44        -0.00099198
  45         0.00000000
  46         0.00000000
  47        -0.00000000
  48        -0.00000000
  49         0.75003571
  50        -0.00000000
  51        -0.00000000
  52         0.00000000
  53        -0.00000000
  54        -0.06203451
  55         0.00000000
  56         0.00000000
  57        -0.00000000
  58        -0.00000000
  59         0.00000000
  60        -0.00000000
Sym=    12a  
Ene=     3.8774
Spin= Alpha
Occup=    0.00000
   1         0.04991111
   2         0.17238882
   3         0.10405472
   4         0.23521692
   5        -0.00000000
   6        -0.00000000
   7        -0.02467256
   8         0.00000000
   9         0.00000000
  10         0.65187530
  11        -0.00000000
  12         0.00000000
  13        -1.41212063
  14         0.03595471
  15        -0.00000000
  16        -0.00000000
  17         0.00000000
  18        -0.00000000
  19        -0.30439198
  20        -0.00000000
  21         0.00000000
  22         0.00000000
  23         0.00000000
  24        -0.05166799
  25        -0.00000000
  26         0.00000000
  27         0.00000000
  28        -0.00000000
  29        -0.00000000
  30         0.00000000
  31         0.04991111
  32         0.17238882
  33         0.10405472
  34         0.23521692
  35        -0.00000000
  36        -0.00000000
  37         0.02467256
  38         0.00000000
  39         0.00000000
  40        -0.65187530
  41         0.00000000
  42        -0.00000000
  43         1.41212063
  44         0.03595471
  45         0.00000000
  46        -0.00000000
  47         0.00000000
  48        -0.00000000
  49        -0.30439198
  50        -0.00000000
  51         0.00000000
  52        -0.00000000
  53         0.00000000
  54         0.05166799
  55         0.00000000
  56        -0.00000000
  57        -0.00000000
  58         0.00000000
  59         0.00000000
  60        -0.00000000
Sym=    13a  
Ene=     3.9251
Spin= Alpha
Occup=    0.00000
   1        -0.00000000
   2        -0.00000000
   3         0.00000000
   4         0.00000000
   5         0.00624709
   6        -0.02696019
   7        -0.00000000
   8        -0.11790246
   9         0.50882462
  10         0.00000000
  11         0.41223356
  12        -1.77905185
  13         0.00000000
  14         0.00000000
  15        -0.00549775
  16         0.02372633
  17        -0.00000000
  18        -0.00000000
  19         0.00000000
  20         0.09278397
  21        -0.40042225
  22         0.00000000
  23         0.00000000
  24        -0.00000000
  25         0.01171658
  26        -0.05056454
  27        -0.00000000
  28        -0.00000000
  29         0.00000000
  30         0.00000000
  31         0.00000000
  32        -0.00000000
  33         0.00000000
  34        -0.00000000
  35        -0.00624709
  36         0.02696019
  37         0.00000000
  38         0.11790246
  39        -0.50882462
  40        -0.00000000
  41        -0.41223356
  42         1.77905185
  43         0.00000000
  44         0.00000000
  45        -0.00549775
  46         0.02372633
  47         0.00000000
  48        -0.00000000
  49        -0.00000000
  50         0.09278397
  51        -0.40042225
  52        -0.00000000
  53         0.00000000
  54         0.00000000
  55        -0.01171658
  56         0.05056454
  57         0.00000000
  58         0.00000000
  59        -0.00000000
  60        -0.00000000
Sym=    14a  
Ene=     3.9251
Spin= Alpha
Occup=    0.00000
   1         0.00000000
   2         0.00000000
   3        -0.00000000
   4         0.00000000
   5        -0.02696019
   6        -0.00624709
   7         0.00000000
   8         0.50882462
   9         0.11790246
  10        -0.00000000
  11        -1.77905185
  12        -0.41223356
  13         0.00000000
  14        -0.00000000
  15         0.02372633
  16         0.00549775
  17        -0.00000000
  18         0.00000000
  19         0.00000000
  20        -0.40042225
  21        -0.09278397
  22         0.00000000
  23        -0.00000000
  24         0.00000000
  25        -0.05056454
  26        -0.01171658
  27         0.00000000
  28        -0.00000000
  29        -0.00000000
  30         0.00000000
  31         0.00000000
  32         0.00000000
  33        -0.00000000
  34        -0.00000000
  35         0.02696019
  36         0.00624709
  37        -0.00000000
  38        -0.50882462
  39        -0.11790246
  40        -0.00000000
  41         1.77905185
  42         0.41223356
  43         0.00000000
  44         0.00000000
  45         0.02372633
  46         0.00549775
  47         0.00000000
  48        -0.00000000
  49        -0.00000000
  50        -0.40042225
  51        -0.09278397
  52        -0.00000000
  53         0.00000000
  54        -0.00000000
  55         0.05056454
  56         0.01171658
  57        -0.00000000
  58        -0.00000000
  59         0.00000000
  60         0.00000000
Sym=    15a  
Ene=     4.0176
Spin= Alpha
Occup=    0.00000
   1         0.00000000
   2         0.00000000
   3         0.00000000
   4        -0.00000000
   5        -0.04722752
   6         0.09950325
   7         0.00000000
   8         0.33249380
   9        -0.70052826
  10        -0.00000000
  11        -0.30987799
  12         0.65287920
  13        -0.00000000
  14        -0.00000000
  15        -0.00488728
  16         0.01029697
  17         0.00000000
  18        -0.00000000
  19        -0.00000000
  20         0.02636602
  21        -0.05555033
  22         0.00000000
  23         0.00000000
  24        -0.00000000
  25        -0.00893766
  26         0.01883068
  27        -0.00000000
  28         0.00000000
  29         0.00000000
  30        -0.00000000
  31         0.00000000
  32         0.00000000
  33         0.00000000
  34         0.00000000
  35        -0.04722752
  36         0.09950325
  37         0.00000000
  38         0.33249380
  39        -0.70052826
  40        -0.00000000
  41        -0.30987799
  42         0.65287920
  43        -0.00000000
  44         0.00000000
  45         0.00488728
  46        -0.01029697
  47         0.00000000
  48         0.00000000
  49         0.00000000
  50        -0.02636602
  51         0.05555033
  52         0.00000000
  53        -0.00000000
  54        -0.00000000
  55        -0.00893766
  56         0.01883068
  57         0.00000000
  58        -0.00000000
  59         0.00000000
  60        -0.00000000
Sym=    16a  
Ene=     4.0176
Spin= Alpha
Occup=    0.00000
   1         0.00000000
   2         0.00000000
   3        -0.00000000
   4        -0.00000000
   5         0.09950325
   6         0.04722752
   7         0.00000000
   8        -0.70052826
   9        -0.33249380
  10        -0.00000000
  11         0.65287920
  12         0.30987799
  13        -0.00000000
  14         0.00000000
  15         0.01029697
  16         0.00488728
  17        -0.00000000
  18         0.00000000
  19        -0.00000000
  20        -0.05555033
  21        -0.02636602
  22         0.00000000
  23        -0.00000000
  24        -0.00000000
  25         0.01883068
  26         0.00893766
  27        -0.00000000
  28         0.00000000
  29         0.00000000
  30         0.00000000
  31        -0.00000000
  32        -0.00000000
  33         0.00000000
  34         0.00000000
  35         0.09950325
  36         0.04722752
  37         0.00000000
  38        -0.70052826
  39        -0.33249380
  40        -0.00000000
  41         0.65287920
  42         0.30987799
  43        -0.00000000
  44         0.00000000
  45        -0.01029697
  46        -0.00488728
  47         0.00000000
  48         0.00000000
  49         0.00000000
  50         0.05555033
  51         0.02636602
  52         0.00000000
  53        -0.00000000
  54        -0.00000000
  55         0.01883068
  56         0.00893766
  57         0.00000000
  58        -0.00000000
  59         0.00000000
  60         0.00000000
Sym=    17a  
Ene=     4.3841
Spin= Alpha
Occup=    0.00000
   1         0.55598725
   2         2.04588619
   3        -0.47271793
   4        -1.76284027
   5         0.00000000
   6         0.00000000
   7         0.00424535
   8        -0.00000000
   9         0.00000000
  10        -0.03516718
  11         0.00000000
  12        -0.00000000
  13        -0.14203033
  14        -0.03269705
  15         0.00000000
  16         0.00000000
  17        -0.00000000
  18         0.00000000
  19         0.19626067
  20        -0.00000000
  21        -0.00000000
  22         0.00000000
  23        -0.00000000
  24        -0.02813405
  25        -0.00000000
  26         0.00000000
  27        -0.00000000
  28         0.00000000
  29         0.00000000
  30        -0.00000000
  31         0.55598725
  32         2.04588619
  33        -0.47271793
  34        -1.76284027
  35        -0.00000000
  36         0.00000000
  37        -0.00424535
  38         0.00000000
  39        -0.00000000
  40         0.03516718
  41        -0.00000000
  42         0.00000000
  43         0.14203033
  44        -0.03269705
  45         0.00000000
  46        -0.00000000
  47        -0.00000000
  48         0.00000000
  49         0.19626067
  50        -0.00000000
  51         0.00000000
  52         0.00000000
  53        -0.00000000
  54         0.02813405
  55         0.00000000
  56         0.00000000
  57         0.00000000
  58        -0.00000000
  59         0.00000000
  60         0.00000000
Sym=    18a  
Ene=     4.3998
Spin= Alpha
Occup=    0.00000
   1         0.17701554
   2         0.69042590
   3        -0.21485881
   4        -9.92995543
   5        -0.00000000
   6        -0.00000000
   7         0.24065169
   8         0.00000000
   9         0.00000000
  10        -2.11977237
  11         0.00000000
  12         0.00000000
  13        -3.40121202
  14        -0.07441823
  15        -0.00000000
  16        -0.00000000
  17        -0.00000000
  18         0.00000000
  19        -0.76057977
  20         0.00000000
  21         0.00000000
  22         0.00000000
  23        -0.00000000
  24        -0.12632331
  25         0.00000000
  26         0.00000000
  27        -0.00000000
  28         0.00000000
  29        -0.00000000
  30        -0.00000000
  31        -0.17701554
  32        -0.69042590
  33         0.21485881
  34         9.92995543
  35        -0.00000000
  36        -0.00000000
  37         0.24065169
  38         0.00000000
  39         0.00000000
  40        -2.11977237
  41        -0.00000000
  42        -0.00000000
  43        -3.40121202
  44         0.07441823
  45         0.00000000
  46         0.00000000
  47        -0.00000000
  48         0.00000000
  49         0.76057977
  50         0.00000000
  51         0.00000000
  52         0.00000000
  53        -0.00000000
  54        -0.12632331
  55        -0.00000000
  56        -0.00000000
  57         0.00000000
  58         0.00000000
  59         0.00000000
  60        -0.00000000
Sym=    19a  
Ene=     4.4579
Spin= Alpha
Occup=    0.00000
   1        -0.00000000
   2        -0.00000000
   3         0.00000000
   4         0.00000000
   5        -0.00000000
   6        -0.00000000
   7        -0.00000000
   8         0.00000000