   This run of MOLCAS is using the pymolcas driver

                             OPE
                             OPE          NMOL  CASOP  ENMOLC A   SO
                 OPE        NMOLC        AS  OP EN  MO LC     AS  OP
                OPENM       OL CA        SO  PE NM  OL CA     SOP EN
                OP EN      MO   LC       AS  OP ENMOL  CASO   PENMOL
                OP  EN     MO   LC       AS  OP EN     MO     LC ASO
               OP   E  NMOL  C  AS       OP  EN MO     LC     AS  OP
               OP  E   NMO   LC AS        OPEN  MO     LCASOP EN   M
               O  PEN   MO  LCA  SO
            OPE   NMO   L   CAS    OP
        OPENMOL  CASOP     ENMOL   CASOPE
     OPENMOLCA   SOPENMOLCASOPEN   MOLCASOPE
    OPENMOLCAS   OP           EN   MOL    CAS
    OPENMOLCAS       OP  ENM        O     LCA
    OPENMOLCAS    OPEN  MOLCASO     P  E  NMO
    OPENMOLCAS     OP               E  N  MOL
    OPENMOLCA   SO           PENM   O  L  CAS    OPEN    MO    LCAS
    OPENMOLCA   SOP           ENM   O  L  CAS   OP  EN  MOLC  AS   O
    OPENMOLCA   SOPE           NM      O  LCA   S      OP  EN MO
    OPENMOLC                AS         O  PEN   M      OL  CA  SOPE
    OPENMO        LCASOPE  NMOL        C  ASO   P      ENMOLC     AS
    OPE     NMO      LCA  SO     P     E   NM   OL  CA SO  PE N   MO
          OPENMOLCA            SOPE   NMO        LCAS  O    P  ENMO
     OPENMOLCASOPENMOLCASOPENMOLCASOPENMOLCA
        OPENMOLCASOPENMOLCASOPENMOLCASOPE
            OPENMOLCASOPENMOLCASOPENM
               OPENMOLCASOPENMOLCA        version: o822a959167d23c ?
                   OPENMOLCASO
                       OPE                tag:

 OpenMolcas is free software; you can redistribute it and/or modify it
 under the terms of the GNU Lesser General Public License version 2.1.
 OpenMolcas is distributed in the hope that it will be useful, but it
 is provided "as is" and without any express or implied warranties.
 For more details see the full text of the license in the file
 LICENSE or in <http://www.gnu.org/licenses/>.

                 Copyright (C) The OpenMolcas Authors
           For the author list and the recommended citation,
                   consult the file CONTRIBUTORS.md

           *************************************************
           * pymolcas version py2.28                       *
           *   build c4a6d18ded8cb6cad61d2372a9abd97c      *
           *   (after the EMIL interpreter by V. Veryazov) *
           *************************************************

configuration info
------------------
Host name: mgt (Linux)
C Compiler ID: GNU
C flags: -std=gnu99
Fortran Compiler ID: GNU
Fortran flags: -fno-aggressive-loop-optimizations -cpp -fdefault-integer-8 -fmax-stack-var-size=1048576
Definitions: _MOLCAS_;_I8_;_LINUX_
Parallel: OFF (GA=OFF)


   -----------------------------------------------------------------------------------------------------------
  |
  |           Project: n2
  |    Submitted from: /public/home/xzzeng/work/HQC/N2/cc-pvtz/NO/PES/entropy/1.09/results/work_dir/n2/initial
  |      Scratch area: /public/home/xzzeng/work/HQC/N2/cc-pvtz/NO/PES/entropy/1.09/results/scratch
  |   Save outputs to: /public/home/xzzeng/work/HQC/N2/cc-pvtz/NO/PES/entropy/1.09/results/work_dir/n2/initial
  |            Molcas: /public/home/xzzeng/soft/OpenMolcas/build
  |
  | Scratch area is empty
  |
  |    MOLCAS_DRIVER = /public/home/xzzeng/soft/OpenMolcas/build/pymolcas
  |    MOLCAS_NPROCS = 1
  |    MOLCAS_SOURCE = /public/home/xzzeng/soft/OpenMolcas
  | MOLCAS_STRUCTURE = 0
  |
   -----------------------------------------------------------------------------------------------------------

++ ---------   Input file   ---------

&GATEWAY
  COORD = /public/home/xzzeng/work/HQC/N2/cc-pvtz/NO/PES/entropy/1.09/n2.xyz
  BASIS = cc-pvtz
  GROUP = C1

&SEWARD
  CHOLesky

&SCF
  SPIN   = 1
  CHARGE = 0
  CHOLesky

-- ----------------------------------

--- Start Module: gateway at Tue Apr  9 10:40:38 2024 ---

()()()()()()()()()()()()()()()()()()()()()()()()()()()()()()()()()()()()()()()()()()()()()()()()()()

                                              &GATEWAY

                                   only a single process is used
                       available to each process: 12 GB of memory, 1 thread?
                                             pid: 12148
()()()()()()()()()()()()()()()()()()()()()()()()()()()()()()()()()()()()()()()()()()()()()()()()()()


++    Symmetry information:
      ---------------------

                    Character Table for C1 

                             E  
                    a        1  x, y, xy, Rz, z, xz, Ry, yz, Rx, I
--


++    Basis set information:
      ----------------------


      Basis set label: N.CC-PVTZ.........

      Electronic valence basis set:
      ------------------
      Associated Effective Charge   7.000000 au
      Associated Actual Charge      7.000000 au
      Nuclear Model: Point charge

      Shell  nPrim  nBasis  Cartesian Spherical Contaminant
         s      10       4        X                  
         p       5       3        X                  
         d       2       2                 X         
         f       1       1                 X         
--


++    Molecular structure info:
      -------------------------

                    ************************************************ 
                    **** Cartesian Coordinates / Bohr, Angstrom **** 
                    ************************************************ 

     Center  Label                x              y              z                     x              y              z
        1      N1               0.000000       0.000000       0.000000              0.000000       0.000000       0.000000
        2      N2               0.000000       0.000000       2.059801              0.000000       0.000000       1.090000
--


            Nuclear Potential Energy             23.78870031 au

--- Stop Module: gateway at Tue Apr  9 10:40:38 2024 /rc=_RC_ALL_IS_WELL_ ---
*** files: xmldump
    saved to directory /public/home/xzzeng/work/HQC/N2/cc-pvtz/NO/PES/entropy/1.09/results/work_dir/n2/initial

--- Start Module: seward at Tue Apr  9 10:40:38 2024 ---

()()()()()()()()()()()()()()()()()()()()()()()()()()()()()()()()()()()()()()()()()()()()()()()()()()

                                              &SEWARD

                                   only a single process is used
                       available to each process: 12 GB of memory, 1 thread?
                                             pid: 12151
()()()()()()()()()()()()()()()()()()()()()()()()()()()()()()()()()()()()()()()()()()()()()()()()()()

               SEWARD will generate:
                  Multipole Moment integrals up to order  2
                  Kinetic Energy integrals
                  Nuclear Attraction integrals (point charge)
                  One-Electron Hamiltonian integrals
                  Velocity integrals
                  Orbital angular momentum around ( 0.0000  0.0000  1.0299 )
                  Velocity quadrupole around ( 0.0000  0.0000  1.0299 )
                  Cholesky decomposed two-electron repulsion integrals
                   - CD Threshold:   0.10E-03

                   Integrals are discarded if absolute value <: 1.00E-40
                   Integral cutoff threshold is set to       <: 1.00E-40

            Nuclear Potential Energy             23.78870031 au


      Basis set specifications :
      Symmetry species         a  
      Basis functions           60


      Input file to MOLDEN was generated!

--- Stop Module: seward at Tue Apr  9 10:40:39 2024 /rc=_RC_ALL_IS_WELL_ ---
*** files: n2.GssOrb n2.guessorb.h5 n2.guessorb.molden xmldump
    saved to directory /public/home/xzzeng/work/HQC/N2/cc-pvtz/NO/PES/entropy/1.09/results/work_dir/n2/initial

*** symbolic link created: INPORB -> n2.GssOrb
--- Start Module: scf at Tue Apr  9 10:40:39 2024 ---

()()()()()()()()()()()()()()()()()()()()()()()()()()()()()()()()()()()()()()()()()()()()()()()()()()

                                                &SCF

                                   only a single process is used
                       available to each process: 12 GB of memory, 1 thread?
                                             pid: 12157
()()()()()()()()()()()()()()()()()()()()()()()()()()()()()()()()()()()()()()()()()()()()()()()()()()

++    Input section:
      --------------

      Header of the integral files:
      
       Integrals generated by Gateway/Seward, Tue Apr  9 10:40:38 2024


      Cartesian coordinates in Angstrom:
      -----------------------------------------------------
      No.  Label        X            Y            Z        
      -----------------------------------------------------
       1   N1         0.00000000   0.00000000   0.00000000
       2   N2         0.00000000   0.00000000   1.09000000
      -----------------------------------------------------
      Nuclear repulsion energy =   23.78870031
--

++    Orbital specifications:
      -----------------------

      Symmetry species               1
                                     a
      Frozen orbitals                0
      Occupied orbitals              7
      Secondary orbitals            53
      Deleted orbitals               0
      Total number of orbitals      60
      Number of basis functions     60
--

      Molecular charge                           0.000

++    Optimization specifications:
      ----------------------------

      SCF Algorithm: LK-Cholesky
      LK screening threshold:                     4.50E-02
      Local-Exchange (LK) algorithm.
       - the density matrix is decomposed
      The actual AO density is used
      Number of density matrices in core                 5
      Maximum number of NDDO SCF iterations            400
      Maximum number of HF SCF iterations              400
      Threshold for SCF energy change             1.00E-09
      Threshold for density matrix                1.00E-04
      Threshold for Fock matrix                   1.50E-04
      Threshold for linear dependence             1.00E-09
      Threshold at which DIIS is turned on        1.50E-01
      Maximum depth in the DIIS procedure                5
      Maximum depth in the BFGS Hessian update          30
      Threshold at which QNR/C2DIIS is turned on  7.50E-02
      Threshold for Norm(delta) (QNR/C2DIIS)      1.00E-03
      All orbitals punched on: SCFORB
--

      Input vectors read from INPORB
      Orbital file label: *Guess orbitals


++ Convergence information
                                   SCF        iterations: Energy and convergence statistics

Iter     Tot. SCF        One-elec.       Two-elec.     Energy      Max Dij or  Max Fij      DNorm      TNorm      AccCon     Time
         Energy          Energy          Energy        Change      Delta Norm                                                in Sec.
   1  -108.734657327  -193.024637499    60.501279865   0.00E+00    1.94E-01*   2.04E-01*    5.58E+00   7.34E+01   None         0.
   2  -108.974333029  -195.196540793    62.433507457  -2.40E-01*   5.53E-02*   3.52E-02*    6.07E+00   7.46E+01   EDIIS        0.
   3  -108.984097760  -194.465798088    61.693000021  -9.76E-03*   1.16E-02*   1.15E-02*    5.92E+00   7.42E+01   c2DIIS       0.
   4  -108.984737532  -194.639688642    61.866250803  -6.40E-04*   3.31E-03*   2.74E-03*    6.00E+00   7.43E+01   QNRc2DIIS    0.
   5  -108.984776127  -194.604760498    61.831284065  -3.86E-05*   1.09E-03*   7.80E-04*    6.00E+00   7.43E+01   QNRc2DIIS    0.
   6  -108.984779528  -194.610558148    61.837078314  -3.40E-06*   7.41E-05    4.32E-05     6.00E+00   7.43E+01   QNRc2DIIS    0.
   7  -108.984779546  -194.610904041    61.837424188  -1.86E-08*   1.80E-05    1.20E-05     6.00E+00   7.43E+01   QNRc2DIIS    0.
   8  -108.984779547  -194.610917430    61.837437577  -5.98E-10    5.51E-06    4.86E-06     6.00E+00   7.43E+01   QNRc2DIIS    0.

       Convergence after   8 Macro Iterations
--

 *****************************************************************************************************************************
 *                                                                                                                           *
 *                                             SCF/KS-DFT Program, Final results                                             *
 *                                                                                                                           *
 *                                                                                                                           *
 *                                                                                                                           *
 *                                                       Final Results                                                       *
 *                                                                                                                           *
 *****************************************************************************************************************************

::    Total SCF energy                               -108.9847795471
      One-electron energy                            -194.6109174303
      Two-electron energy                              61.8374375766
      Nuclear repulsion energy                         23.7887003066
      Kinetic energy (interpolated)                   108.8217597941
      Virial theorem                                    1.0014980437
      Total spin, S(S+1)                                0.0000000000
      Total spin, S                                     0.0000000000
      Max non-diagonal density matrix element           0.0000046170
      Max non-diagonal Fock matrix element              0.0000023886


      All orbitals with orbital energies smaller than  E(LUMO)+0.5 are printed

++    Molecular orbitals:
      -------------------

      Title: SCF orbitals

      Molecular orbitals for symmetry species 1: a  

          Orbital            1         2         3         4         5         6         7         8         9        10    
          Energy          -15.6789  -15.6752   -1.4752   -0.7749   -0.6331   -0.6153   -0.6153    0.1657    0.1657    0.4262
          Occ. No.          2.0000    2.0000    2.0000    2.0000    2.0000    2.0000    2.0000    0.0000    0.0000    0.0000

        1 N1     1s         0.7023   -0.7113   -0.0248   -0.0043    0.0026   -0.0000    0.0000    0.0000   -0.0000    0.0591
        2 N1     2s         0.0013    0.0009    0.6109   -0.6553    0.2353    0.0000    0.0000   -0.0000    0.0000    0.5109
        3 N1     *s         0.0006   -0.0005   -0.0026   -0.0004    0.0013    0.0000    0.0000   -0.0000    0.0000   -0.0269
        4 N1     *s        -0.0010   -0.0041   -0.1405   -0.0530    0.1796    0.0000    0.0000   -0.0000    0.0000    6.5797
        5 N1     2px       -0.0000    0.0000    0.0000    0.0000   -0.0000   -0.0236    0.6282   -0.4176   -0.4672    0.0000
        6 N1     *px        0.0000   -0.0000    0.0000   -0.0000    0.0000    0.0003   -0.0082    0.0085    0.0095    0.0000
        7 N1     *px        0.0000   -0.0000   -0.0000   -0.0000    0.0000    0.0013   -0.0349   -0.3428   -0.3835   -0.0000
        8 N1     2py       -0.0000    0.0000    0.0000    0.0000   -0.0000    0.6282    0.0236   -0.4672    0.4176    0.0000
        9 N1     *py        0.0000   -0.0000   -0.0000   -0.0000    0.0000   -0.0082   -0.0003    0.0095   -0.0085    0.0000
       10 N1     *py        0.0000   -0.0000   -0.0000   -0.0000    0.0000   -0.0349   -0.0013   -0.3835    0.3428   -0.0000
       11 N1     2pz        0.0050   -0.0035    0.3467    0.3224   -0.7002   -0.0000   -0.0000    0.0000   -0.0000   -0.0534
       12 N1     *pz       -0.0028    0.0022   -0.0431   -0.0104    0.0493    0.0000    0.0000   -0.0000    0.0000    0.3252
       13 N1     *pz       -0.0017   -0.0005   -0.1004   -0.0318    0.0870    0.0000    0.0000    0.0000   -0.0000    3.6980
       14 N1     *d2-       0.0000   -0.0000    0.0000    0.0000   -0.0000   -0.0000   -0.0000   -0.0000   -0.0000    0.0000
       15 N1     *d2-       0.0000    0.0000   -0.0000   -0.0000    0.0000    0.0000    0.0000   -0.0000   -0.0000    0.0000
       16 N1     *d1-       0.0000    0.0000   -0.0000    0.0000   -0.0000    0.0201    0.0008    0.0102   -0.0091   -0.0000
       17 N1     *d1-       0.0000   -0.0000    0.0000   -0.0000   -0.0000    0.0383    0.0014   -0.0075    0.0067    0.0000
       18 N1     *d0        0.0005   -0.0006    0.0203    0.0034   -0.0183   -0.0000   -0.0000    0.0000   -0.0000   -0.0187
       19 N1     *d0       -0.0004   -0.0002    0.0188    0.0081   -0.0158   -0.0000   -0.0000    0.0000   -0.0000    0.3034
       20 N1     *d1+       0.0000   -0.0000   -0.0000    0.0000   -0.0000   -0.0008    0.0201    0.0091    0.0102   -0.0000
       21 N1     *d1+       0.0000    0.0000    0.0000    0.0000   -0.0000   -0.0014    0.0383   -0.0067   -0.0075    0.0000
       22 N1     *d2+      -0.0000    0.0000   -0.0000    0.0000   -0.0000    0.0000   -0.0000    0.0000   -0.0000    0.0000
       23 N1     *d2+      -0.0000    0.0000   -0.0000    0.0000   -0.0000   -0.0000    0.0000    0.0000   -0.0000   -0.0000
       24 N1     *f3-       0.0000   -0.0000    0.0000    0.0000   -0.0000   -0.0000   -0.0000   -0.0000    0.0000   -0.0000
       25 N1     *f2-       0.0000    0.0000   -0.0000    0.0000   -0.0000   -0.0000   -0.0000    0.0000    0.0000   -0.0000
       26 N1     *f1-       0.0000    0.0000   -0.0000   -0.0000   -0.0000    0.0082    0.0003   -0.0005    0.0005   -0.0000
       27 N1     *f0       -0.0002   -0.0004    0.0075   -0.0002   -0.0051   -0.0000   -0.0000    0.0000    0.0000    0.0218
       28 N1     *f1+       0.0000    0.0000   -0.0000    0.0000   -0.0000   -0.0003    0.0082   -0.0005   -0.0005   -0.0000
       29 N1     *f2+       0.0000    0.0000   -0.0000   -0.0000    0.0000    0.0000   -0.0000   -0.0000    0.0000   -0.0000
       30 N1     *f3+      -0.0000    0.0000    0.0000   -0.0000   -0.0000   -0.0000    0.0000    0.0000    0.0000   -0.0000
       31 N2     1s         0.7116    0.7021   -0.0248    0.0043    0.0026    0.0000   -0.0000    0.0000   -0.0000   -0.0590
       32 N2     2s         0.0014   -0.0009    0.6110    0.6553    0.2352   -0.0000   -0.0000    0.0000   -0.0000   -0.5108
       33 N2     *s         0.0006    0.0005   -0.0026    0.0004    0.0013   -0.0000    0.0000   -0.0000    0.0000    0.0269
       34 N2     *s        -0.0009    0.0041   -0.1405    0.0530    0.1796    0.0000    0.0000   -0.0000    0.0000   -6.5797
       35 N2     2px        0.0000    0.0000   -0.0000    0.0000   -0.0000   -0.0236    0.6282    0.4176    0.4672    0.0000
       36 N2     *px       -0.0000   -0.0000    0.0000   -0.0000    0.0000    0.0003   -0.0082   -0.0085   -0.0095    0.0000
       37 N2     *px       -0.0000   -0.0000    0.0000   -0.0000    0.0000    0.0013   -0.0349    0.3428    0.3835   -0.0000
       38 N2     2py        0.0000    0.0000   -0.0000    0.0000   -0.0000    0.6282    0.0236    0.4672   -0.4176    0.0000
       39 N2     *py       -0.0000   -0.0000    0.0000   -0.0000    0.0000   -0.0082   -0.0003   -0.0095    0.0085    0.0000
       40 N2     *py       -0.0000   -0.0000    0.0000   -0.0000    0.0000   -0.0349   -0.0013    0.3835   -0.3428   -0.0000
       41 N2     2pz       -0.0051   -0.0034   -0.3467    0.3224    0.7002    0.0000    0.0000   -0.0000    0.0000   -0.0535
       42 N2     *pz        0.0028    0.0022    0.0430   -0.0104   -0.0493   -0.0000   -0.0000    0.0000   -0.0000    0.3251
       43 N2     *pz        0.0016   -0.0005    0.1004   -0.0318   -0.0870   -0.0000   -0.0000   -0.0000    0.0000    3.6984
       44 N2     *d2-      -0.0000   -0.0000   -0.0000    0.0000    0.0000    0.0000    0.0000   -0.0000   -0.0000    0.0000
       45 N2     *d2-       0.0000    0.0000    0.0000   -0.0000   -0.0000   -0.0000   -0.0000   -0.0000   -0.0000    0.0000
       46 N2     *d1-       0.0000    0.0000    0.0000   -0.0000    0.0000   -0.0201   -0.0008    0.0102   -0.0091    0.0000
       47 N2     *d1-       0.0000   -0.0000    0.0000    0.0000    0.0000   -0.0383   -0.0014   -0.0075    0.0067   -0.0000
       48 N2     *d0        0.0005    0.0006    0.0203   -0.0034   -0.0183   -0.0000   -0.0000    0.0000   -0.0000    0.0187
       49 N2     *d0       -0.0004    0.0002    0.0188   -0.0081   -0.0158    0.0000    0.0000    0.0000   -0.0000   -0.3035
       50 N2     *d1+       0.0000    0.0000    0.0000   -0.0000    0.0000    0.0008   -0.0201    0.0091    0.0102    0.0000
       51 N2     *d1+       0.0000   -0.0000    0.0000   -0.0000    0.0000    0.0014   -0.0383   -0.0067   -0.0075   -0.0000
       52 N2     *d2+      -0.0000    0.0000   -0.0000   -0.0000   -0.0000   -0.0000    0.0000    0.0000   -0.0000   -0.0000
       53 N2     *d2+      -0.0000   -0.0000   -0.0000   -0.0000   -0.0000    0.0000   -0.0000    0.0000   -0.0000    0.0000
       54 N2     *f3-       0.0000   -0.0000    0.0000    0.0000   -0.0000   -0.0000   -0.0000    0.0000   -0.0000    0.0000
       55 N2     *f2-       0.0000   -0.0000   -0.0000    0.0000    0.0000   -0.0000   -0.0000   -0.0000   -0.0000   -0.0000
       56 N2     *f1-      -0.0000   -0.0000    0.0000    0.0000   -0.0000    0.0082    0.0003    0.0005   -0.0005   -0.0000
       57 N2     *f0        0.0002   -0.0004   -0.0075   -0.0002    0.0051    0.0000    0.0000   -0.0000    0.0000    0.0218
       58 N2     *f1+      -0.0000    0.0000    0.0000    0.0000   -0.0000   -0.0003    0.0082    0.0005    0.0005   -0.0000
       59 N2     *f2+       0.0000   -0.0000    0.0000   -0.0000   -0.0000    0.0000   -0.0000    0.0000   -0.0000   -0.0000
       60 N2     *f3+      -0.0000   -0.0000    0.0000    0.0000   -0.0000   -0.0000    0.0000   -0.0000   -0.0000   -0.0000

          Orbital           11        12        13    
          Energy            0.5608    0.5613    0.5613
          Occ. No.          0.0000    0.0000    0.0000

        1 N1     1s         0.0636    0.0000   -0.0000
        2 N1     2s         0.1658    0.0000   -0.0000
        3 N1     *s         0.0308    0.0000   -0.0000
        4 N1     *s         0.1915    0.0000   -0.0000
        5 N1     2px        0.0000   -0.3721    0.0424
        6 N1     *px        0.0000   -0.3293    0.0375
        7 N1     *px       -0.0000    0.8236   -0.0938
        8 N1     2py        0.0000    0.0424    0.3721
        9 N1     *py        0.0000    0.0375    0.3293
       10 N1     *py       -0.0000   -0.0938   -0.8236
       11 N1     2pz        0.3243    0.0000   -0.0000
       12 N1     *pz        0.2592    0.0000   -0.0000
       13 N1     *pz       -1.3541   -0.0000    0.0000
       14 N1     *d2-      -0.0000   -0.0000    0.0000
       15 N1     *d2-      -0.0000    0.0000   -0.0000
       16 N1     *d1-       0.0000    0.0017    0.0146
       17 N1     *d1-       0.0000    0.0081    0.0709
       18 N1     *d0        0.0448    0.0000   -0.0000
       19 N1     *d0       -0.1213   -0.0000    0.0000
       20 N1     *d1+       0.0000   -0.0146    0.0017
       21 N1     *d1+       0.0000   -0.0709    0.0081
       22 N1     *d2+      -0.0000   -0.0000   -0.0000
       23 N1     *d2+       0.0000    0.0000    0.0000
       24 N1     *f3-       0.0000   -0.0000   -0.0000
       25 N1     *f2-      -0.0000    0.0000   -0.0000
       26 N1     *f1-      -0.0000   -0.0002   -0.0019
       27 N1     *f0       -0.0246   -0.0000    0.0000
       28 N1     *f1+      -0.0000    0.0019   -0.0002
       29 N1     *f2+      -0.0000    0.0000    0.0000
       30 N1     *f3+      -0.0000   -0.0000    0.0000
       31 N2     1s         0.0636    0.0000   -0.0000
       32 N2     2s         0.1658    0.0000   -0.0000
       33 N2     *s         0.0308    0.0000   -0.0000
       34 N2     *s         0.1921    0.0000   -0.0000
       35 N2     2px        0.0000   -0.3721    0.0424
       36 N2     *px        0.0000   -0.3293    0.0375
       37 N2     *px       -0.0000    0.8236   -0.0938
       38 N2     2py        0.0000    0.0424    0.3721
       39 N2     *py        0.0000    0.0375    0.3293
       40 N2     *py       -0.0000   -0.0938   -0.8236
       41 N2     2pz       -0.3243   -0.0000    0.0000
       42 N2     *pz       -0.2591   -0.0000    0.0000
       43 N2     *pz        1.3536    0.0000   -0.0000
       44 N2     *d2-      -0.0000    0.0000   -0.0000
       45 N2     *d2-       0.0000   -0.0000    0.0000
       46 N2     *d1-      -0.0000   -0.0017   -0.0146
       47 N2     *d1-      -0.0000   -0.0081   -0.0709
       48 N2     *d0        0.0448    0.0000   -0.0000
       49 N2     *d0       -0.1214   -0.0000    0.0000
       50 N2     *d1+      -0.0000    0.0146   -0.0017
       51 N2     *d1+      -0.0000    0.0709   -0.0081
       52 N2     *d2+      -0.0000    0.0000    0.0000
       53 N2     *d2+       0.0000   -0.0000   -0.0000
       54 N2     *f3-       0.0000   -0.0000   -0.0000
       55 N2     *f2-      -0.0000    0.0000   -0.0000
       56 N2     *f1-      -0.0000   -0.0002   -0.0019
       57 N2     *f0        0.0246    0.0000   -0.0000
       58 N2     *f1+      -0.0000    0.0019   -0.0002
       59 N2     *f2+      -0.0000    0.0000    0.0000
       60 N2     *f3+       0.0000   -0.0000    0.0000
--


++    Molecular charges:
      ------------------

      Mulliken charges per centre and basis function type
      ---------------------------------------------------

                N1      N2    
      1s       1.9993  1.9994
      2s       1.7690  1.7691
      2px      1.0283  1.0283
      2pz      1.4851  1.4851
      2py      1.0283  1.0283
      *s      -0.0109 -0.0110
      *px     -0.0622 -0.0622
      *pz     -0.2637 -0.2636
      *py     -0.0622 -0.0622
      *d2+     0.0000  0.0000
      *d1+     0.0314  0.0314
      *d0      0.0193  0.0193
      *d1-     0.0314  0.0314
      *d2-     0.0000  0.0000
      *f3+     0.0000  0.0000
      *f2+     0.0000  0.0000
      *f1+     0.0025  0.0025
      *f0      0.0017  0.0017
      *f1-     0.0025  0.0025
      *f2-     0.0000  0.0000
      *f3-     0.0000  0.0000
      Total    6.9999  7.0001

      N-E      0.0001 -0.0001

      Total electronic charge=   14.000000

      Total            charge=   -0.000000
--


++    Molecular properties:
      ---------------------

      Charge (e):
                      =   -0.0000
      Dipole Moment (Debye):
      Origin of the operator (Ang)=    0.0000    0.0000    0.0000
                   X=  5.1125E-13               Y=  1.5267E-12               Z=  3.9288E-05           Total=  3.9288E-05
      Quadrupole Moment (Debye*Ang):
      Origin of the operator (Ang)=    0.0000    0.0000    0.5450
                  XX= -1.0248E+01              XY=  2.9079E-17              XZ= -5.2704E-12              YY= -1.0248E+01
                  YZ= -1.1184E-11              ZZ= -1.1643E+01
      In traceless form (Debye*Ang)
                  XX=  6.9764E-01              XY=  4.3619E-17              XZ= -7.9056E-12              YY=  6.9764E-01
                  YZ= -1.6775E-11              ZZ= -1.3953E+00
--


      Input file to MOLDEN was generated!

 ###############################################################################
 ###############################################################################
 ###                                                                         ###
 ###                                                                         ###
 ###    WARNING: RunFile label nBas                                          ###
 ###    was used       74 times                                              ###
 ###                                                                         ###
 ###                                                                         ###
 ###############################################################################
 ###############################################################################
--- Stop Module: scf at Tue Apr  9 10:40:39 2024 /rc=_RC_ALL_IS_WELL_ ---
*** files: n2.scf.molden n2.ScfOrb n2.scf.h5 xmldump
    saved to directory /public/home/xzzeng/work/HQC/N2/cc-pvtz/NO/PES/entropy/1.09/results/work_dir/n2/initial

.##################.
.# Happy landing! #.
.##################.

    Timing: Wall=1.28 User=1.07 System=0.06
