Generated by MOKIT
SP        RHF                                                         MYBAS
Number of atoms                            I                2
Charge                                     I                0
Multiplicity                               I                1
Number of electrons                        I               14
Number of alpha electrons                  I                7
Number of beta electrons                   I                7
Number of basis functions                  I               60
Number of independent functions            I               60
Atomic numbers                             I   N=           2
           7           7
Nuclear charges                            R   N=           2
  7.00000000E+00  7.00000000E+00
Current cartesian coordinates              R   N=           6
  0.00000000E+00  0.00000000E+00  0.00000000E+00  0.00000000E+00  0.00000000E+00
  2.26767135E+00
Int Atom Types                             I   N=           2
           0           0
Number of contracted shells                I               20
Number of primitive shells                 I               52
Highest angular momentum                   I                3
Largest degree of contraction              I                8
Shell types                                I   N=          20
           0           0           0           0           1           1
           1          -2          -2          -3           0           0
           0           0           1           1           1          -2
          -2          -3
Number of primitives per shell             I   N=          20
           8           8           1           1           3           1
           1           1           1           1           8           8
           1           1           3           1           1           1
           1           1
Shell to atom map                          I   N=          20
           1           1           1           1           1           1
           1           1           1           1           2           2
           2           2           2           2           2           2
           2           2
Primitive exponents                        R   N=          52
  1.14200000E+04  1.71200000E+03  3.89300000E+02  1.10000000E+02  3.55700000E+01
  1.25400000E+01  4.64400000E+00  5.11800000E-01  1.14200000E+04  1.71200000E+03
  3.89300000E+02  1.10000000E+02  3.55700000E+01  1.25400000E+01  4.64400000E+00
  5.11800000E-01  1.29300000E+00  1.78700000E-01  2.66300000E+01  5.94800000E+00
  1.74200000E+00  5.55000000E-01  1.72500000E-01  1.65400000E+00  4.69000000E-01
  1.09300000E+00  1.14200000E+04  1.71200000E+03  3.89300000E+02  1.10000000E+02
  3.55700000E+01  1.25400000E+01  4.64400000E+00  5.11800000E-01  1.14200000E+04
  1.71200000E+03  3.89300000E+02  1.10000000E+02  3.55700000E+01  1.25400000E+01
  4.64400000E+00  5.11800000E-01  1.29300000E+00  1.78700000E-01  2.66300000E+01
  5.94800000E+00  1.74200000E+00  5.55000000E-01  1.72500000E-01  1.65400000E+00
  4.69000000E-01  1.09300000E+00
Contraction coefficients                   R   N=          52
  5.34980914E-04  4.13766310E-03  2.12509149E-02  8.25762988E-02  2.38413273E-01
  4.43431666E-01  3.55431909E-01 -8.70290176E-03 -1.98776985E-04 -1.54700349E-03
 -7.99256330E-03 -3.20255651E-02 -9.91102048E-02 -2.28292775E-01 -2.98182763E-01
  1.03700052E+00  1.00000000E+00  1.00000000E+00  3.98072123E-02  2.49002660E-01
  8.10479727E-01  1.00000000E+00  1.00000000E+00  1.00000000E+00  1.00000000E+00
  1.00000000E+00  5.34980914E-04  4.13766310E-03  2.12509149E-02  8.25762988E-02
  2.38413273E-01  4.43431666E-01  3.55431909E-01 -8.70290176E-03 -1.98776985E-04
 -1.54700349E-03 -7.99256330E-03 -3.20255651E-02 -9.91102048E-02 -2.28292775E-01
 -2.98182763E-01  1.03700052E+00  1.00000000E+00  1.00000000E+00  3.98072123E-02
  2.49002660E-01  8.10479727E-01  1.00000000E+00  1.00000000E+00  1.00000000E+00
  1.00000000E+00  1.00000000E+00
Coordinates of each shell                  R   N=          60
  0.00000000E+00  0.00000000E+00  0.00000000E+00  0.00000000E+00  0.00000000E+00
  0.00000000E+00  0.00000000E+00  0.00000000E+00  0.00000000E+00  0.00000000E+00
  0.00000000E+00  0.00000000E+00  0.00000000E+00  0.00000000E+00  0.00000000E+00
  0.00000000E+00  0.00000000E+00  0.00000000E+00  0.00000000E+00  0.00000000E+00
  0.00000000E+00  0.00000000E+00  0.00000000E+00  0.00000000E+00  0.00000000E+00
  0.00000000E+00  0.00000000E+00  0.00000000E+00  0.00000000E+00  0.00000000E+00
  0.00000000E+00  0.00000000E+00  2.26767135E+00  0.00000000E+00  0.00000000E+00
  2.26767135E+00  0.00000000E+00  0.00000000E+00  2.26767135E+00  0.00000000E+00
  0.00000000E+00  2.26767135E+00  0.00000000E+00  0.00000000E+00  2.26767135E+00
  0.00000000E+00  0.00000000E+00  2.26767135E+00  0.00000000E+00  0.00000000E+00
  2.26767135E+00  0.00000000E+00  0.00000000E+00  2.26767135E+00  0.00000000E+00
  0.00000000E+00  2.26767135E+00  0.00000000E+00  0.00000000E+00  2.26767135E+00
Num ILSW                                   I              100
ILSW                                       I   N=         100
           0           0           0           0           2           0
           0           0           0           0           0          -1
           5           0           0           0           0           0
           0           0           0           0           0           0
           1           1           0           0           0           0
           0           0      100000           0          -1           0
           0           0           0           0           0           0
           0           0           0           1           0           0
           0 -2000000000           1           0           0           0
           0           0           4          52           0           0
           0           0           0           0           0           0
           0           0           0           2           0           1
           0           0           0           0           0           0
           0           0           0           0           0           0
           0           0           0           0           0           0
           0           0           0           0           0           0
           0           0           0           0
Virial Ratio                               R      0.000000000000000E+00
Total Energy                               R      0.000000000000000E+00
Alpha Orbital Energies                     R   N=          60
 -1.57157203E+01 -1.57136439E+01 -1.39752396E+00 -8.09504020E-01 -6.21807455E-01
 -5.71901558E-01 -5.71901558E-01  1.14230519E-01  1.14230519E-01  4.10956512E-01
  5.75847210E-01  5.77869056E-01  5.77869056E-01  6.65735653E-01  7.16703808E-01
  7.16703808E-01  8.24065772E-01  1.02960092E+00  1.05553471E+00  1.05553471E+00
  1.27701469E+00  1.27701469E+00  1.47452448E+00  1.47452448E+00  1.91806611E+00
  1.91806611E+00  1.92790864E+00  2.05679911E+00  3.15898575E+00  3.15898575E+00
  3.26843914E+00  3.42196771E+00  3.42196771E+00  3.80585082E+00  3.80585082E+00
  3.86304167E+00  3.91252429E+00  3.91252429E+00  4.00866812E+00  4.00866812E+00
  4.25625247E+00  4.37181258E+00  4.37181258E+00  4.75568514E+00  4.75568514E+00
  4.78353685E+00  4.86213429E+00  4.86213429E+00  4.97050198E+00  4.97050198E+00
  5.11330054E+00  5.11330054E+00  5.27604677E+00  5.27604677E+00  5.73058124E+00
  5.85838637E+00  6.39663210E+00  6.42944294E+00  6.42944294E+00  1.34393184E+01
Alpha MO coefficients                      R   N=        3600
  9.75412923E-01 -3.93846043E-02  3.09861640E-02 -2.14745205E-02  7.25616048E-18
 -2.48110681E-09  5.67781144E-03  5.48384722E-18 -3.32938928E-09  3.50439305E-03
  4.11107048E-18 -2.15929867E-09  5.18525852E-03  2.67671859E-05 -4.73721929E-19
 -1.72727036E-10 -3.65134565E-19  2.80472812E-19 -8.48298638E-04  1.46771712E-18
 -4.19163944E-10  2.40988330E-19  9.82909264E-19 -3.43323009E-04 -8.28143082E-19
 -7.94916892E-11  2.32677095E-19  3.18469842E-19 -7.83498304E-21  2.48338603E-20
  9.77517452E-04 -2.98986944E-03 -9.58506774E-04  1.56950771E-03  1.20791855E-17
 -2.48110688E-09  5.57036544E-03  1.72531614E-17 -3.32938928E-09  5.61788375E-03
  1.35397917E-17 -2.15929869E-09  1.35706723E-03 -6.59732410E-04 -8.78921846E-19
  1.72727038E-10 -2.71229136E-19 -2.56501151E-19 -8.16148177E-04 -3.68522081E-18
  4.19163943E-10  7.82655272E-20 -6.55238811E-19  5.32909690E-04  8.00929958E-19
 -7.94916899E-11 -2.72295337E-19 -2.41512411E-20  1.57255532E-20  5.95926058E-20
  9.77517452E-04 -2.98986944E-03 -9.58506774E-04  1.56950771E-03  2.22437021E-17
  2.48110723E-09 -5.57036544E-03 -3.28747042E-17  3.32939002E-09 -5.61788375E-03
 -2.21253898E-18  2.15929920E-09 -1.35706723E-03 -6.59732410E-04 -4.33867758E-18
  1.72727079E-10 -7.60139191E-21  5.44290917E-18 -8.16148177E-04 -5.18536344E-18
  4.19164042E-10 -6.92779862E-19  6.18788716E-19 -5.32909690E-04 -3.39386880E-18
  7.94917098E-11 -4.98205462E-19  3.94093013E-19 -7.18333928E-20  1.21063396E-19
  9.75412923E-01 -3.93846043E-02  3.09861640E-02 -2.14745205E-02 -4.18203424E-17
  2.48110750E-09 -5.67781144E-03 -2.76875020E-17  3.32939005E-09 -3.50439305E-03
 -2.70794942E-17  2.15929919E-09 -5.18525852E-03  2.67671859E-05  2.93641619E-18
 -1.72727079E-10  8.74751402E-19  3.69574168E-19 -8.48298638E-04  2.30551643E-18
 -4.19164046E-10 -5.05588771E-19 -7.05740208E-19  3.43323009E-04  5.67494600E-19
  7.94917061E-11  5.83361679E-19  7.59903867E-19  2.82319755E-20 -1.01472389E-19
 -2.06798857E-02 -2.04848714E-01 -5.17641217E-02 -1.59684991E-02  2.77555756E-16
 -1.60574387E-01 -1.33405753E-01  5.68989300E-16 -2.15474249E-01 -1.57582705E-01
 -4.02455846E-16 -1.39747330E-01 -5.25842797E-02 -1.48249586E-02  5.29090660E-17
 -1.11786954E-02  7.81690761E-17 -3.20734582E-17 -1.72525241E-02  1.97758476E-16
 -2.71278089E-02  1.37922516E-16  1.15891942E-16 -5.76289929E-03  2.98806119E-16
 -5.14461084E-03 -6.11729772E-17  2.13317602E-17  2.75045739E-17 -5.92425741E-17
 -2.06798839E-02 -2.04848823E-01 -5.17641509E-02 -1.59685838E-02  6.38378239E-16
 -1.60574387E-01  1.33405723E-01  2.35922393E-16 -2.15474249E-01  1.57582669E-01
  1.05471187E-15 -1.39747330E-01  5.25842620E-02 -1.48249577E-02  1.04083409E-17
  1.11786954E-02  4.01027509E-17 -2.59239854E-18 -1.72525224E-02  5.89805982E-17
  2.71278089E-02  1.31208502E-16  1.60727763E-17  5.76289943E-03 -2.18141477E-16
 -5.14461084E-03 -7.55319793E-17  1.60177644E-17  4.96365799E-17 -1.78795030E-17
 -1.32326051E-02 -1.00638660E-01 -2.59099005E-02 -2.18273125E-02  6.20827075E-17
 -3.13040184E-08 -6.40028304E-02 -2.13809645E-20 -4.20067603E-08 -8.03505064E-02
 -1.81464486E-16 -2.72437784E-08 -5.43113231E-02 -4.10957024E-03  4.38734866E-17
 -2.17928958E-09  3.36178694E-18 -1.42451396E-16 -3.23305303E-03  1.66902772E-17
 -5.28857336E-09  2.75993748E-17 -2.05270121E-17 -2.08865975E-03  7.07324017E-17
 -1.00294327E-09  9.01336987E-18 -1.14975694E-17  1.20471803E-18 -1.41247857E-18
  5.45632773E-02  4.55075575E-01  1.26270005E-01  4.10520754E-01  1.92144904E-16
 -3.13040183E-08  2.16895368E-01  1.93408578E-16 -4.20067605E-08  2.69022197E-01
  1.97032629E-16 -2.72437779E-08  1.44982886E-01 -8.86998444E-03 -1.20425350E-17
  2.17928957E-09  5.10403023E-18  1.08802288E-17 -1.21827052E-02  3.72056269E-17
  5.28857339E-09  1.75264812E-17  2.53028957E-17  1.38314737E-03 -2.47404798E-17
 -1.00294317E-09 -1.93025955E-17 -2.67166390E-17 -1.11870215E-18  1.71001724E-18
  5.45632773E-02  4.55075575E-01  1.26270005E-01  4.10520754E-01  2.89035633E-16
  3.13040365E-08 -2.16895368E-01  1.98866332E-16  4.20067854E-08 -2.69022197E-01
  2.44999317E-16  2.72437937E-08 -1.44982886E-01 -8.86998444E-03  1.32401267E-17
  2.17929085E-09  4.40962706E-19 -5.97916008E-17 -1.21827052E-02  1.81480287E-17
  5.28857649E-09  2.65702911E-18 -2.64102793E-17 -1.38314737E-03  5.33015958E-17
  1.00294377E-09 -4.42404249E-18 -8.35601325E-18  1.48622002E-18 -2.17043842E-18
 -1.32326051E-02 -1.00638660E-01 -2.59099005E-02 -2.18273125E-02  1.44835874E-16
  3.13040368E-08  6.40028304E-02  1.83682013E-16  4.20067854E-08  8.03505064E-02
  1.20706083E-16  2.72437943E-08  5.43113231E-02 -4.10957024E-03 -1.09919453E-17
 -2.17929085E-09  1.27204793E-18  7.94241865E-18 -3.23305303E-03  2.34265337E-17
 -5.28857645E-09 -5.92004863E-18  1.21280052E-17  2.08865975E-03 -1.20915119E-17
  1.00294382E-09 -4.18370707E-18 -1.30541609E-17 -4.60470040E-19  7.08188122E-19
 -1.07181238E-16  1.23586420E-15  6.30051765E-16  4.38167723E-16  2.27086476E-01
 -8.18789481E-16  9.43521488E-16  3.04726606E-01 -9.15933995E-16  2.56917327E-15
  1.97632569E-01 -8.32667268E-16  9.74367749E-17  1.76060985E-16  1.58090627E-02
 -1.56125113E-17  8.34080774E-17  2.07960129E-17  4.30210496E-16  3.83645152E-02
  3.12250226E-17 -2.30574594E-16 -3.39615409E-16 -2.57501261E-16  7.27557842E-03
  3.83373888E-16 -6.59812910E-17 -3.74138264E-17  8.52352349E-18 -6.53747091E-17
  2.47720269E-16  2.76139099E-15  1.16870011E-15 -1.55309821E-15  2.27086476E-01
 -6.24500451E-16 -8.92584347E-16  3.04726606E-01 -1.05471187E-15 -1.73220572E-15
  1.97632569E-01 -9.43689571E-16 -8.98677115E-16  3.25996018E-16 -1.58090627E-02
  1.02348685E-16  4.64617907E-17 -2.49312851E-17  7.23543776E-17 -3.83645152E-02
  2.81025203E-16 -8.18727164E-17 -6.73671500E-17 -2.06720423E-16  7.27557842E-03
 -2.63677968E-16 -9.42338877E-17  2.18637678E-17  5.00448019E-17 -2.31956339E-17
  2.06798839E-02  2.04848823E-01  5.17641509E-02  1.59685838E-02 -1.98452366E-15
 -1.60574387E-01  1.33405723E-01 -2.20656826E-15 -2.15474249E-01  1.57582669E-01
 -2.38697950E-15 -1.39747330E-01  5.25842620E-02  1.48249577E-02 -1.08420217E-16
 -1.11786954E-02  7.35419065E-17  4.32033098E-17  1.72525224E-02 -1.47451495E-16
 -2.71278089E-02  1.08648943E-16  1.26920250E-16  5.76289943E-03  1.95156391E-16
 -5.14461084E-03 -6.27079058E-17  2.97680037E-17  2.84690966E-17 -6.22754865E-17
  2.06798857E-02  2.04848714E-01  5.17641217E-02  1.59684991E-02 -1.56819002E-15
 -1.60574387E-01 -1.33405753E-01 -2.74780199E-15 -2.15474249E-01 -1.57582705E-01
 -9.57567359E-16 -1.39747330E-01 -5.25842797E-02  1.48249586E-02  1.70870262E-16
  1.11786954E-02  4.99717031E-17 -3.86747246E-18  1.72525241E-02  3.98986399E-16
  2.71278089E-02  1.44578858E-16  2.28914795E-17 -5.76289929E-03 -2.71484224E-16
 -5.14461084E-03 -6.30526986E-17  3.38961363E-17  4.95200760E-17 -2.16724084E-17
  8.32918912E-01  1.63921711E+00 -3.04249137E-01  1.61462003E+00  1.25780829E-01
 -1.32032853E-01  8.23527926E-02  4.54939199E-01 -4.37874015E-01  1.78186559E+00
  9.95062248E-02 -9.84151700E-02  6.92289714E-01  3.65491637E-01  2.75711813E-01
 -2.76397429E-01  1.23991184E-03 -3.71159201E-02  6.98980694E-01  3.38503050E-01
 -3.22799305E-01 -2.52266588E-04 -3.98427511E-02  2.37840421E-01  3.28628695E-01
 -3.24706878E-01 -4.24429274E-03 -5.67880005E-02 -2.49888987E-02  1.13530719E-02
 -8.49304455E-01 -1.65975265E+00  3.22289453E-01 -1.60734561E+00 -1.13252057E-01
  1.11978798E-01  7.75359585E-02 -4.70654402E-01  4.59019662E-01  1.78754055E+00
 -8.87443178E-02  8.59989406E-02  6.90698740E-01 -3.57340941E-01  2.73566226E-01
 -2.68303153E-01  3.58311812E-04  4.72560296E-02 -7.01847406E-01  3.43719957E-01
 -3.34258896E-01  3.60947002E-04  3.21331615E-02  2.26848816E-01 -3.35273590E-01
  3.28013080E-01 -5.06549512E-04 -6.93951920E-02  1.30675177E-02  1.13766645E-02
  7.93748317E-01  1.54706593E+00 -3.09114602E-01  1.46353856E+00  3.93485036E-02
  1.70423095E-01  7.30528354E-02  1.57453293E-01  6.41143137E-01  1.65426623E+00
  3.86134097E-02  1.33864824E-01  6.30954384E-01  3.15252929E-01  9.48503942E-02
  3.87644961E-01 -6.49465729E-02  2.01383604E-02  6.44106565E-01  1.22250828E-01
  4.73554702E-01 -3.60175543E-02  2.06869307E-02  1.84074992E-01  1.19851797E-01
  4.65843752E-01 -9.05102136E-02  3.08707658E-02 -1.34652111E-02 -3.35309008E-02
 -7.93637057E-01 -1.54792809E+00  3.08790494E-01 -1.46214167E+00 -4.64452228E-02
 -1.61792118E-01  7.08588685E-02 -1.58583993E-01 -6.56300603E-01  1.65433313E+00
 -3.53484076E-02 -1.23848855E-01  6.29782637E-01 -3.21314259E-01  9.63463698E-02
  3.79714071E-01  4.91375495E-02 -2.31010534E-02 -6.42392026E-01  1.17013517E-01
  4.78548232E-01  2.95688717E-02 -8.92878639E-03  1.95084182E-01 -1.14911489E-01
 -4.61222951E-01 -6.80157672E-02  2.27067114E-02  1.01229288E-03  1.38915422E-02
 -7.36252901E-02 -1.03089639E-01  7.16612831E-02  5.07529982E+00  2.47321604E-05
  1.65383308E-04 -7.52220761E-02 -8.35354990E-05 -2.89881202E-04  5.79245819E-01
  1.57201719E-04  1.92980748E-04  1.88189684E+00  1.32197213E-03  9.53955991E-05
 -3.49436034E-04 -5.18944326E-04 -1.88330700E-04  1.55209762E-01 -2.38563650E-04
  3.50536461E-04  5.67936676E-05  3.45953747E-04 -4.43343286E-02  2.03470915E-04
 -6.01193848E-04  5.97355185E-04  6.61306435E-04 -3.39659504E-04 -4.78850608E-04
 -4.29817986E-02 -6.66695630E-02  2.22520098E-01 -4.49705896E+00 -8.05102008E-05
 -4.00893181E-05  1.89622663E-01  2.88524089E-04  8.87106513E-05 -6.27799225E-01
 -1.85826652E-04 -3.20683916E-04  3.78283735E+00  9.83067374E-03 -2.91192177E-04
  4.63055349E-04  5.29631969E-06  1.29156802E-03 -5.86348762E-01  3.54477955E-04
 -7.64361619E-04 -7.40967622E-05 -1.03682943E-03  1.04981498E-01  1.15429455E-04
 -7.60986896E-05  8.80900464E-05  9.68781882E-04  2.01579018E-04  2.90076093E-04
  3.03562133E-02  4.01395276E-02 -2.22987280E-01  4.63539315E+00  1.79315862E-03
 -6.68182057E-03  1.94116179E-01 -2.24997790E-03  1.31627310E-02 -6.09968945E-01
  3.12079171E-03 -1.22413346E-02  3.84363960E+00 -1.29929226E-02 -1.99407200E-03
  2.33183252E-03  8.01472027E-03  3.58456758E-03  6.25926380E-01  9.03379708E-03
 -1.09650276E-02  9.65344468E-04 -1.36111438E-03  1.11132856E-01 -3.78535968E-03
  5.86155887E-03 -4.61349956E-03 -3.33229801E-03  9.21146348E-04 -6.76479868E-04
  6.03799538E-02  7.83919080E-02 -7.11112234E-02 -5.18142209E+00  7.56284250E-04
 -1.17304683E-03 -7.67866248E-02 -2.40398597E-03  1.15884303E-03  6.09523804E-01
 -1.93474450E-03  5.24212554E-03  1.92148609E+00 -3.57848082E-03 -5.32748028E-04
  1.90319023E-03  1.10141068E-04  4.09986739E-05 -1.62748420E-01  2.66739607E-03
 -3.20428898E-03  3.73457143E-04  6.99092215E-04 -4.47764394E-02 -7.74133122E-05
 -9.59641424E-04 -5.78849450E-04 -8.68283978E-04  9.68271429E-05  9.09231779E-05
 -7.39129915E-01 -1.30681829E+00  3.59610950E-01  3.34546072E+00  4.38106375E-03
 -4.33340648E-02 -2.26050278E-02 -1.03326265E-01  5.78267491E-01  3.45911440E-01
  2.44019920E-01 -1.24352032E+00  1.25313849E+00  6.59966848E-02 -3.72545168E-03
  5.21986702E-02  4.35353210E-01  1.73338190E-01  2.55204099E-01  4.97512160E-02
 -2.47312329E-01 -5.18464742E-01 -2.24548162E-01  8.23828435E-02  2.03668232E-02
 -4.91274123E-02  1.62995134E-02  5.70280796E-03 -6.76756977E-02  5.95445186E-02
 -4.88858620E-02 -9.05282179E-02  2.49224706E-02 -2.46225141E+00  6.80669697E-04
 -6.71865685E-03 -8.30742487E-02 -3.98385833E-02  1.68326138E-01  4.42154031E-01
 -9.48200982E-02  4.82103657E-01  9.24392981E-01 -1.53381437E-02 -2.63129280E-03
  3.26262450E-02 -3.00916951E-03 -3.16043752E-04 -1.13218253E-01  5.91367237E-02
 -2.78501738E-01  8.71902792E-02  3.82476603E-02 -2.71292577E-02 -1.08488653E-02
  3.26594145E-02 -5.95934585E-02 -2.73340773E-02  3.06158412E-03 -2.42922978E-03
 -7.42161655E-01 -1.31066908E+00  3.58090050E-01  3.37556877E+00 -5.12410643E-04
  1.91863699E-02 -7.24821296E-02  5.00915749E-01  5.56588950E-02  3.86246130E-01
 -1.25510116E+00 -1.93683630E-01  1.28029701E+00  4.59523761E-02  7.14851901E-02
  1.34543346E-02 -4.20200628E-01 -1.41436712E-01  2.38178023E-01 -4.04529534E-01
 -6.97348940E-02  5.47082842E-01  1.87931816E-01  1.74207019E-02 -5.44964507E-02
 -1.69629574E-02  9.56735506E-02  2.67178518E-02 -1.14612913E-01 -5.64002643E-02
 -5.68223179E-02 -1.02893546E-01  4.06366586E-02 -2.49000121E+00 -1.74728114E-02
 -3.13183443E-03 -9.14637007E-02  2.45738807E-01  4.60504632E-02  4.49312789E-01
  5.03404100E-01  7.90048116E-02  9.32874508E-01 -7.07645542E-03  2.06225906E-02
  6.15076757E-04 -4.32329228E-03 -1.33080116E-03 -1.07533225E-01 -3.43952895E-01
 -5.95162528E-02 -9.94530966E-02 -3.30931369E-02 -3.91011181E-02  5.57928868E-02
  1.25790840E-02  8.19956491E-02  2.61166517E-02  5.26411986E-03  7.57187706E-04
 -7.18911829E-01 -1.27410771E+00  3.41814819E-01  3.32989047E+00 -7.41220485E-03
  2.06973614E-02 -6.50190103E-02 -4.85240466E-01 -1.22669542E-01  3.85404274E-01
  1.23872615E+00  2.46887705E-01  1.26133991E+00  5.18451508E-02 -6.42092827E-02
 -8.52376385E-03 -4.30379082E-01 -1.63985319E-01  2.37334212E-01  3.82870947E-01
  6.60845520E-02  5.54206387E-01  2.06087912E-01  2.65471522E-02  6.36971457E-02
  5.84339121E-03  7.71136386E-02  3.40393307E-02  1.06302103E-01  6.52938413E-02
 -5.91572282E-02 -1.07970574E-01  4.02430073E-02 -2.45903315E+00  1.46663263E-02
  1.88859443E-03 -8.88154544E-02 -2.41101968E-01 -3.75818443E-02  4.51405344E-01
 -4.95871220E-01 -9.72104734E-02  9.22200026E-01 -9.92654292E-03 -1.74375197E-02
 -6.15192558E-03 -1.08383576E-03 -6.37233163E-04 -1.10552714E-01  3.37615098E-01
  5.91388948E-02 -9.84588827E-02 -3.73220739E-02 -3.61174164E-02 -5.80241357E-02
 -7.13802606E-03  7.70393315E-02  2.99882882E-02 -2.99205700E-03 -3.23539398E-03
  2.80188359E-02  5.08055850E-02 -3.34947989E-02  2.13416250E+00 -4.55230672E-03
  1.90334760E-03 -7.90191481E-02  2.25601969E-01 -3.27250216E-02  3.67019994E-01
  4.48556291E-01 -7.32920941E-02  8.03006666E-01  4.38707709E-03 -1.36517044E-02
  4.61059607E-03  3.90483587E-04  7.39949034E-04  9.01585520E-02  3.08149418E-01
 -4.75300337E-02  1.10985641E-01 -4.00227497E-02 -3.36155886E-02  5.31295886E-02
 -6.12633180E-03  8.49614786E-02 -3.02440718E-02  8.70525434E-03 -3.66710272E-03
  5.76889397E-01  1.06558623E+00 -2.26407128E-01 -2.87539473E+00  6.98071618E-02
 -1.41671414E-02 -3.38066257E-02  3.40539044E-01 -5.95177042E-02  2.97984976E-01
 -1.09452938E+00  1.79443947E-01  1.08586015E+00 -4.38484043E-02 -7.04994515E-02
  1.28880058E-02  3.63041104E-01 -1.24720140E-01 -1.58276253E-01  3.26347803E-01
 -5.14048734E-02 -6.42273260E-01  2.15944596E-01  1.82860904E-02 -2.09579996E-02
 -7.76923293E-04  6.06161327E-02 -2.15435899E-02 -2.84703245E-01  1.51561544E-01
  7.02254774E-01  1.25469932E+00 -3.24905957E-01 -3.21218235E+00  9.74998535E-04
  1.77241048E-02  3.72872814E-02 -7.65984251E-02  4.57206561E-01 -3.27236975E-01
  1.94055185E-01 -1.20398268E+00 -1.21207007E+00 -4.68530327E-02 -1.61994290E-02
  8.15998294E-02 -4.11321933E-01 -1.38858148E-01 -2.05367941E-01  5.26934644E-02
 -3.37374880E-01  5.84730587E-01  1.89822506E-01 -4.02798152E-02 -2.91816815E-04
 -2.17396401E-02  3.29064331E-02  6.41786291E-03 -7.77004568E-02  1.76687570E-01
  3.81197067E-02  6.83324899E-02 -3.32167752E-02  2.36790697E+00  1.17274576E-03
 -9.51737086E-03  8.55365934E-02 -3.42435427E-02  2.22272581E-01 -4.08543221E-01
 -7.76506262E-02  4.81869197E-01 -8.88329515E-01  6.47888182E-03 -4.49317652E-03
  2.37353632E-02 -1.28931022E-03  8.96608517E-04  9.88476019E-02  4.97517151E-02
 -3.16251377E-01 -1.02074721E-01 -3.27411642E-02  3.50182937E-02 -6.70741077E-03
  4.64479505E-02  7.80300069E-02  2.38460402E-02  3.45246038E-03 -7.87002320E-03
 -8.13037602E-01 -1.58662518E+00  3.13418027E-01 -1.51432831E+00  1.63465953E-01
  3.93492951E-02 -7.26775728E-02  6.43947183E-01  1.55882051E-01 -1.70356149E+00
  1.26710049E-01  3.43601944E-02 -6.51992687E-01 -3.36363200E-01  3.87713623E-01
  9.41803719E-02 -6.26699481E-02 -2.00252443E-02 -6.69259806E-01  4.73388917E-01
  1.17547405E-01 -2.89157637E-02 -1.62731262E-02 -2.10405450E-01  4.65905512E-01
  1.18527137E-01 -8.90913673E-02 -3.21992558E-02  7.62975475E-03  1.76128135E-02
  8.16088324E-01  1.59265396E+00 -3.12363195E-01  1.51106071E+00 -1.61032115E-01
 -4.58570945E-02 -7.45644981E-02 -6.52286451E-01 -1.55111531E-01 -1.70394452E+00
 -1.20819981E-01 -3.31131741E-02 -6.49843067E-01  3.34484715E-01  3.80066292E-01
  9.49134445E-02  4.81436769E-02  2.33585879E-02  6.63086159E-01  4.75160237E-01
  1.13776743E-01  2.71010838E-02  8.71095556E-03 -2.05817424E-01 -4.61368496E-01
 -1.12802527E-01 -6.49267734E-02 -2.26977325E-02 -1.19241950E-02 -1.25019176E-03
 -2.33096064E-02 -4.19929010E-02  3.07680755E-02 -2.13791580E+00 -5.86437800E-03
 -1.77521270E-03  7.96953109E-02  1.94266351E-01  9.99836532E-02 -3.60007709E-01
  4.04215626E-01  2.05246965E-01 -8.03948424E-01 -3.53377019E-03 -1.70276332E-02
 -7.02895835E-03 -4.06369922E-03 -7.49565791E-05 -8.80026554E-02  2.71638650E-01
  1.38580595E-01 -6.91669389E-02 -9.55956629E-02  3.33177632E-02  4.19423731E-02
  2.37592735E-02 -5.64681654E-02 -7.37013082E-02  3.52341617E-03  1.05398719E-02
 -5.87280142E-01 -1.08364407E+00  2.32826012E-01  2.88477793E+00  6.19425564E-02
  3.02430803E-02  3.18165317E-02  3.22989923E-01  1.59920634E-01 -2.88799340E-01
 -9.92778533E-01 -5.01275929E-01 -1.08780518E+00  4.35789001E-02 -6.45868876E-02
 -3.16070206E-02 -2.31255424E-01 -3.11558172E-01  1.57061760E-01  2.84280584E-01
  1.45070923E-01  3.99660258E-01  5.43956864E-01 -2.11660673E-02 -1.38699723E-02
 -9.36230168E-03 -3.72668976E-02 -4.99551595E-02 -5.29811952E-02 -3.13965398E-01
 -5.34478950E-01 -6.15119379E-01  6.39624784E-01  5.32206623E-01  4.04621440E-01
 -4.17812751E-01  1.15942290E-01 -4.69474635E-01  5.84626676E-01 -6.64579283E-02
 -3.83748146E-02 -6.57950186E-02  2.25886395E-01  9.53910868E-02  1.49108899E-01
 -1.14562333E-01  1.70878035E-01 -1.88326217E-02  2.73804106E-01 -3.69029076E-01
  3.95928476E-01 -3.86188359E-02  4.71042637E-01  2.51987856E-01  1.01373398E-01
 -1.12299652E-01  1.19540616E-01  3.06382483E-01  3.57427448E-01  2.17262024E-01
 -1.12614860E-03 -1.56617314E-02 -7.65064074E-02 -3.96520685E-01 -2.56246289E-02
  1.44741080E-02  3.78916569E-02  2.10144229E-01 -2.42943802E-01  7.12046508E-02
  7.30417089E-02 -4.26881944E-02  1.42875358E-01 -4.09244936E-02 -1.34146585E-02
  3.46003217E-02 -6.29478815E-03 -1.40863197E-02 -3.08588448E-02 -1.84670689E-01
  1.93743339E-01  3.59470172E-04 -9.25770986E-02  4.49775039E-02  4.94716814E-02
 -6.77963255E-02  1.29753579E-02  1.01136262E-01 -1.25692637E-02 -1.23107528E-02
 -4.88724871E-01 -5.59699452E-01  5.91967501E-01  3.34936426E-01 -2.17960965E-01
 -4.72387587E-01  9.72704862E-02  2.67720642E-01  6.94404616E-01 -1.04135440E-01
  7.57858279E-02  3.78387878E-02  1.45968720E-01  8.30459175E-02 -5.80712461E-02
 -1.22430463E-01  9.36788700E-02  8.12498763E-02  2.51619064E-01  2.28404665E-01
  5.30535849E-01  2.97303002E-01 -4.11105618E-01  2.45226574E-01 -1.70259280E-02
 -9.30862707E-02  2.62598558E-01 -1.96554274E-01 -4.03668271E-01 -1.81028247E-01
  1.34953131E-02  1.46194264E-02 -8.41105449E-02 -2.37843691E-01  7.08518686E-03
  5.29707652E-03  3.64130215E-02 -1.52350707E-01 -3.54278566E-01  1.58993540E-02
 -6.49610756E-02 -1.04425187E-01  8.06913852E-02 -3.28056672E-02  2.41383953E-02
  6.48243139E-02 -9.94406231E-03  7.37465653E-03 -1.33678160E-02  1.34845744E-01
  2.92896641E-01 -6.13952154E-02  7.74215304E-02  4.33319456E-02 -4.99448126E-02
 -1.16416308E-01  7.08921264E-02 -7.57937599E-02  1.65492193E-02  2.94477140E-03
 -1.59438193E-01 -2.82752520E-01  6.51457960E-02 -7.09813054E-01 -8.58563344E-02
  1.24258256E-02  4.64151146E-02  2.58877533E-01 -4.95632106E-02 -2.84903913E-01
  1.72876112E-01 -2.74296167E-02 -2.57358869E-01  8.15633765E-03 -6.38209750E-03
 -5.13813448E-03 -2.37868099E-02  5.53078437E-03 -5.89763621E-02  2.83728348E-01
 -5.03912132E-02 -2.01362458E-03  4.14131052E-03  3.36328233E-02  6.02287430E-02
 -1.67432388E-02 -5.03619670E-02  1.77147129E-02 -6.53893031E-03  4.77552009E-03
 -4.14313221E-01 -4.56161614E-01  4.89027476E-01  9.07794855E-01 -2.68801220E-01
  4.65306103E-02  3.70565357E-01  3.16295171E-01 -4.60059965E-02 -4.98536041E-01
 -3.00785690E-01  4.95385052E-02 -4.23330119E-01 -7.86041241E-02 -1.06955900E-01
  4.41381974E-03 -8.36501320E-02  2.98161536E-02  2.92247711E-01  8.48572173E-01
 -1.34585832E-01 -1.93740370E-01  6.63030689E-02  2.21106624E-01 -1.74985508E-02
  2.27942517E-02 -5.04006858E-01  1.74390520E-01  2.04574766E-01 -1.10463411E-01
 -1.58837415E-01 -2.82126276E-01  6.43686162E-02 -7.12603332E-01 -1.13132460E-02
  8.59437102E-02  4.66293973E-02  4.75161438E-02 -2.58918893E-01 -2.85961886E-01
  2.72715464E-02 -1.73074753E-01 -2.58531728E-01  7.82604107E-03  5.31959960E-03
  6.97766579E-03  2.50494343E-02  9.31277534E-03 -5.92728552E-02  4.92057880E-02
 -2.83920282E-01  9.07126222E-04  4.16583989E-04  3.34344869E-02  1.65576064E-02
 -5.93806189E-02  5.01290481E-02  1.73200692E-02  3.78568952E-03 -6.84779471E-03
 -4.14481735E-01 -4.56066160E-01  4.89507271E-01  9.10197306E-01 -4.52481835E-02
  2.69360186E-01  3.71275722E-01  4.37510718E-02 -3.17261313E-01 -5.00010949E-01
 -4.80079974E-02  3.01235924E-01 -4.24296634E-01 -7.83738877E-02 -4.43555730E-03
  1.07992917E-01  8.38575782E-02  2.79867658E-02  2.92137590E-01  1.30079228E-01
 -8.49836792E-01  1.94544759E-01  6.47234710E-02  2.20345384E-01 -2.28041413E-02
  1.63304356E-02  5.05689155E-01  1.67477128E-01 -1.06221605E-01  2.06279674E-01
  3.27414247E-02  5.84568144E-02 -3.71642141E-02  2.12700566E+00  3.82379248E-03
 -2.63743861E-03 -8.00255342E-02 -1.67576032E-01  1.66717105E-01  3.70912250E-01
 -3.21740357E-01  3.22980384E-01  8.00250770E-01  3.49186174E-03  8.54240369E-03
 -8.13410223E-03 -1.78722056E-03  1.09402945E-03  9.11854214E-02 -2.25647341E-01
  2.24458931E-01  7.29998739E-04 -1.19802492E-01 -3.55872690E-02 -4.03632015E-02
  4.04194809E-02  5.79507357E-04 -9.15892286E-02  8.93209517E-03  5.37239680E-03
  5.70136280E-01  1.05468363E+00 -2.21410716E-01 -2.86598355E+00 -5.25304770E-02
  5.29905468E-02 -3.77218975E-02 -2.34413044E-01  2.37582506E-01  3.03854335E-01
  7.81007281E-01 -7.85388207E-01  1.08353737E+00 -4.32650951E-02  5.11965455E-02
 -5.20500253E-02 -2.50908596E-03 -3.80896457E-01 -1.58408485E-01 -2.42460058E-01
  2.42920512E-01  4.06763609E-03  6.79784992E-01  1.46551515E-02  1.59014273E-02
 -1.54420904E-02 -2.10727332E-04 -7.01840486E-02 -2.31129467E-01 -2.26425163E-01