   This run of MOLCAS is using the pymolcas driver

                             OPE
                             OPE          NMOL  CASOP  ENMOLC A   SO
                 OPE        NMOLC        AS  OP EN  MO LC     AS  OP
                OPENM       OL CA        SO  PE NM  OL CA     SOP EN
                OP EN      MO   LC       AS  OP ENMOL  CASO   PENMOL
                OP  EN     MO   LC       AS  OP EN     MO     LC ASO
               OP   E  NMOL  C  AS       OP  EN MO     LC     AS  OP
               OP  E   NMO   LC AS        OPEN  MO     LCASOP EN   M
               O  PEN   MO  LCA  SO
            OPE   NMO   L   CAS    OP
        OPENMOL  CASOP     ENMOL   CASOPE
     OPENMOLCA   SOPENMOLCASOPEN   MOLCASOPE
    OPENMOLCAS   OP           EN   MOL    CAS
    OPENMOLCAS       OP  ENM        O     LCA
    OPENMOLCAS    OPEN  MOLCASO     P  E  NMO
    OPENMOLCAS     OP               E  N  MOL
    OPENMOLCA   SO           PENM   O  L  CAS    OPEN    MO    LCAS
    OPENMOLCA   SOP           ENM   O  L  CAS   OP  EN  MOLC  AS   O
    OPENMOLCA   SOPE           NM      O  LCA   S      OP  EN MO
    OPENMOLC                AS         O  PEN   M      OL  CA  SOPE
    OPENMO        LCASOPE  NMOL        C  ASO   P      ENMOLC     AS
    OPE     NMO      LCA  SO     P     E   NM   OL  CA SO  PE N   MO
          OPENMOLCA            SOPE   NMO        LCAS  O    P  ENMO
     OPENMOLCASOPENMOLCASOPENMOLCASOPENMOLCA
        OPENMOLCASOPENMOLCASOPENMOLCASOPE
            OPENMOLCASOPENMOLCASOPENM
               OPENMOLCASOPENMOLCA        version: o822a959167d23c ?
                   OPENMOLCASO
                       OPE                tag:

 OpenMolcas is free software; you can redistribute it and/or modify it
 under the terms of the GNU Lesser General Public License version 2.1.
 OpenMolcas is distributed in the hope that it will be useful, but it
 is provided "as is" and without any express or implied warranties.
 For more details see the full text of the license in the file
 LICENSE or in <http://www.gnu.org/licenses/>.

                 Copyright (C) The OpenMolcas Authors
           For the author list and the recommended citation,
                   consult the file CONTRIBUTORS.md

           *************************************************
           * pymolcas version py2.28                       *
           *   build c4a6d18ded8cb6cad61d2372a9abd97c      *
           *   (after the EMIL interpreter by V. Veryazov) *
           *************************************************

configuration info
------------------
Host name: mgt (Linux)
C Compiler ID: GNU
C flags: -std=gnu99
Fortran Compiler ID: GNU
Fortran flags: -fno-aggressive-loop-optimizations -cpp -fdefault-integer-8 -fmax-stack-var-size=1048576
Definitions: _MOLCAS_;_I8_;_LINUX_
Parallel: OFF (GA=OFF)


   -------------------------------------------------------------------------------------------------------
  |
  |           Project: n2
  |    Submitted from: /public/home/xzzeng/work/HQC/N2/cc-pvtz/NO/PES/entropy/2.0/results/work_dir/n2/dmrg
  |      Scratch area: /public/home/xzzeng/work/HQC/N2/cc-pvtz/NO/PES/entropy/2.0/results/scratch
  |   Save outputs to: /public/home/xzzeng/work/HQC/N2/cc-pvtz/NO/PES/entropy/2.0/results/work_dir/n2/dmrg
  |            Molcas: /public/home/xzzeng/soft/OpenMolcas/build
  |
  | Scratch area is NOT empty
  |
  |    MOLCAS_DRIVER = /public/home/xzzeng/soft/OpenMolcas/build/pymolcas
  |    MOLCAS_NPROCS = 1
  |    MOLCAS_SOURCE = /public/home/xzzeng/soft/OpenMolcas
  | MOLCAS_STRUCTURE = 0
  |
   -------------------------------------------------------------------------------------------------------

++ ---------   Input file   ---------

&DMRGSCF
ActiveSpaceOptimizer = QCMaquis
DMRGSettings
  nsweeps = 5
  max_bond_dimension = 300
EndDMRGSettings
OOptimizationSettings
  SPIN    = 1
  NACTEL  = 10
  FILEORB = /public/home/xzzeng/work/HQC/N2/cc-pvtz/NO/PES/entropy/2.0/results/work_dir/n2/dmrg/n2.scf.h5_sel
  TYPEINDEX
  CIONLY
EndOOptimizationSettings

-- ----------------------------------

*** symbolic link created: INPORB -> n2.ScfOrb
--- Start Module: dmrgscf at Tue Apr  9 00:42:36 2024 ---

()()()()()()()()()()()()()()()()()()()()()()()()()()()()()()()()()()()()()()()()()()()()()()()()()()

                                              &DMRGSCF

                                   only a single process is used
                       available to each process: 12 GB of memory, 1 thread?
                                             pid: 62031
()()()()()()()()()()()()()()()()()()()()()()()()()()()()()()()()()()()()()()()()()()()()()()()()()()


      DMRGSCF: active space solver is set to qcmaquis
      -------                                --------


      Header of the ONEINT file:
      --------------------------
      
      Integrals generated by Gateway/Seward, Tue Apr  9 00:42:33 2024


      OrdInt status: non-squared


      Cartesian coordinates in Angstrom:
      -----------------------------------------------------
      No.  Label        X            Y            Z        
      -----------------------------------------------------
       1   N1         0.00000000   0.00000000   0.00000000
       2   N2         0.00000000   0.00000000   2.00000000
      -----------------------------------------------------
      Nuclear repulsion energy =   12.96484167

++    Wave function specifications:
      -----------------------------

      Number of closed shell electrons           4
      Number of electrons in active shells      10
      Max number of holes in RAS1 space          0
      Max nr of electrons in RAS3 space          0
      Number of inactive orbitals                2
      Number of active orbitals                  8
      Number of secondary orbitals              50
      Spin quantum number                      0.0
      State symmetry                             1
--

++    Orbital specifications:
      -----------------------

      Symmetry species                           1
                                                 a
      Frozen orbitals                            0
      Inactive orbitals                          2
      Active orbitals                            8
      RAS1 orbitals                              0
      RAS2 orbitals                              8
      RAS3 orbitals                              0
      Secondary orbitals                        50
      Deleted orbitals                           0
      Number of basis functions                 60
--

++    DMRG specifications:
      ----------------------------

      Number of renormalized states              300
      (Max) number of sweeps                     5
      Convergence threshold (sweep tolerance)    0.100E-07
      Jacobi-Davidson threshold                  0.100E-10
      SVD truncation threshold (initial)         1e-50
      SVD truncation threshold (final)           0.100E-10
      Number of root(s) required                 1
      Root chosen for geometry opt.              1
      DMRG root used                             1
         
--

++    Optimization specifications:
      ----------------------------

      RASSCF algorithm: LK Cholesky
      Maximum number of macro iterations       200
      Maximum number of SX iterations          100
      Threshold for RASSCF energy            1.000E-08
      Threshold for max MO rotation          1.000E-01
      Threshold for max BLB element          1.000E-04
      Level shift parameter                  5.000E-01
      Make Quasi-Newton update
--

      The MO-coefficients are taken from the file:
      /public/home/xzzeng/work/HQC/N2/cc-pvtz/NO/PES/entropy/2.0/results/work_dir/n2/dmrg/n2.scf.h5_sel                                                                                                                                                               

      Total molecular charge    0.00

      ************************************************************************************************************************
      *                                                                                                                      *
      *                                            Wave function control section                                             *
      *                                                                                                                      *
      ************************************************************************************************************************


                                         DMRGCI only, no orbital optimization will be done.
                                         --------------------------------------------------

                                             Please cite for the QCMaquis-Molcas driver:

                                    Freitag L.; Keller S.; Knecht S.; Lindh R.; Ma Y.; 
                                    Stein C. J. and Reiher M., in preparation. (2018).
                                    ---------------------------------------------------------------

                                             Please cite for the QCMaquis DMRG software:

                                    S. Keller, M. Dolfi, M. Troyer, M. Reiher,
                                    J. Chem. Phys. 143, 244118 (2015)
                                    ---------------------------------------------------------------



      DMRGCI energy              :    -108.7620205215
      Total time spent (hh:mm:ss):            0:00:04


      Natural orbitals and occupation numbers for root  1
      sym 1:   1.998039   1.995154   1.695997   1.358035   1.358034   0.643688   0.643688   0.307365

      ************************************************************************************************************************
      *                                                                                                                      *
      *                                                    Final results                                                     *
      *                                                                                                                      *
      ************************************************************************************************************************


++    Wave function specifications:
      -----------------------------

      Number of closed shell electrons           4
      Number of electrons in active shells      10
      Max number of holes in RAS1 space          0
      Max nr of electrons in RAS3 space          0
      Number of inactive orbitals                2
      Number of active orbitals                  8
      Number of secondary orbitals              50
      Spin quantum number                      0.0
      State symmetry                             1
--

++    Orbital specifications:
      -----------------------

      Symmetry species                           1
                                                 a
      Frozen orbitals                            0
      Inactive orbitals                          2
      Active orbitals                            8
      RAS1 orbitals                              0
      RAS2 orbitals                              8
      RAS3 orbitals                              0
      Secondary orbitals                        50
      Deleted orbitals                           0
      Number of basis functions                 60
--

++    DMRG specifications:
      ----------------------------

      Number of renormalized states              300
      (Max) number of sweeps                     5
      Convergence threshold (sweep tolerance)    0.100E-07
      Jacobi-Davidson threshold                  0.100E-10
      SVD truncation threshold (initial)         1e-50
      SVD truncation threshold (final)           0.100E-10
      Number of root(s) required                 1
      DMRG root used                             1
      highest root included in the DMRG          1
      Root passed to geometry opt.               1
--

++    Final optimization conditions:
      ------------------------------

      Average CI energy                            -108.76202052
--


      Final state energy(ies):
      ------------------------

::    RASSCF root number  1 Total energy:   -108.76202052

++    Molecular orbitals:
      -------------------

      Pseudonatural active orbitals and approximate occupation numbers




      Molecular orbitals for symmetry species 1: a  


      Orbital                 1         2         3         4         5         6         7         8         9        10
      Energy             0.0000    0.0000    0.0000    0.0000    0.0000    0.0000    0.0000    0.0000    0.0000    0.0000
      Occ. No.           0.0000    0.0000    0.0000    0.0000    0.0000    0.0000    0.0000    0.0000    0.0000    0.0000

     1 N1     1s         0.7049   -0.7104   -0.0007   -0.0034    0.0033    0.0000    0.0000    0.0000    0.0000    0.0042
     2 N1     2s         0.0003    0.0003    0.6936   -0.7490    0.1378    0.0000   -0.0000   -0.0000    0.0000    0.2300
     3 N1     *s        -0.0012    0.0009    0.0058   -0.0101    0.0080   -0.0000    0.0000   -0.0000   -0.0000    0.0043
     4 N1     *s        -0.0002   -0.0008   -0.0382    0.0356    0.0174   -0.0000   -0.0000   -0.0000   -0.0000    0.1161
     5 N1     2px        0.0000    0.0000    0.0000   -0.0000   -0.0000   -0.0000    0.6246    0.0000   -0.6776    0.0000
     6 N1     *px       -0.0000   -0.0000    0.0000   -0.0000   -0.0000    0.0000   -0.0144   -0.0000    0.0233    0.0000
     7 N1     *px        0.0000   -0.0000   -0.0000   -0.0000    0.0000   -0.0000    0.0770    0.0000   -0.1194    0.0000
     8 N1     2py        0.0000   -0.0000   -0.0000    0.0000   -0.0000    0.6246    0.0000   -0.6776   -0.0000    0.0000
     9 N1     *py       -0.0000    0.0000    0.0000   -0.0000    0.0000   -0.0144   -0.0000    0.0233    0.0000    0.0000
    10 N1     *py       -0.0000    0.0000    0.0000   -0.0000    0.0000    0.0770    0.0000   -0.1194   -0.0000    0.0000
    11 N1     2pz        0.0022   -0.0023    0.0420    0.1022   -0.6285   -0.0000   -0.0000    0.0000   -0.0000    0.7225
    12 N1     *pz       -0.0016    0.0018    0.0062   -0.0004   -0.0012    0.0000    0.0000   -0.0000    0.0000   -0.0378
    13 N1     *pz       -0.0005    0.0001    0.0003   -0.0081   -0.0218   -0.0000   -0.0000   -0.0000   -0.0000    0.2556
    14 N1     *d2-       0.0000    0.0000    0.0000    0.0000   -0.0000    0.0000    0.0000   -0.0000   -0.0000    0.0000
    15 N1     *d2-      -0.0000   -0.0000   -0.0000    0.0000    0.0000   -0.0000    0.0000   -0.0000   -0.0000   -0.0000
    16 N1     *d1-      -0.0000    0.0000   -0.0000    0.0000   -0.0000    0.0024    0.0000    0.0009    0.0000    0.0000
    17 N1     *d1-      -0.0000   -0.0000    0.0000   -0.0000   -0.0000    0.0205    0.0000    0.0106    0.0000    0.0000
    18 N1     *d0       -0.0001   -0.0000    0.0015    0.0014   -0.0048   -0.0000   -0.0000    0.0000    0.0000   -0.0059
    19 N1     *d0        0.0002    0.0000    0.0090    0.0035   -0.0218   -0.0000   -0.0000   -0.0000   -0.0000   -0.0101
    20 N1     *d1+       0.0000   -0.0000   -0.0000    0.0000   -0.0000   -0.0000    0.0024   -0.0000    0.0009    0.0000
    21 N1     *d1+      -0.0000    0.0000    0.0000   -0.0000   -0.0000   -0.0000    0.0205   -0.0000    0.0106    0.0000
    22 N1     *d2+       0.0000   -0.0000    0.0000    0.0000   -0.0000   -0.0000   -0.0000    0.0000    0.0000   -0.0000
    23 N1     *d2+      -0.0000    0.0000   -0.0000   -0.0000    0.0000   -0.0000    0.0000    0.0000   -0.0000    0.0000
    24 N1     *f3-      -0.0000   -0.0000    0.0000    0.0000    0.0000    0.0000    0.0000   -0.0000   -0.0000    0.0000
    25 N1     *f2-       0.0000    0.0000    0.0000   -0.0000   -0.0000   -0.0000    0.0000    0.0000    0.0000   -0.0000
    26 N1     *f1-       0.0000   -0.0000    0.0000   -0.0000   -0.0000    0.0022    0.0000    0.0015    0.0000    0.0000
    27 N1     *f0        0.0001    0.0001    0.0018    0.0005   -0.0024   -0.0000   -0.0000    0.0000    0.0000   -0.0019
    28 N1     *f1+       0.0000    0.0000    0.0000    0.0000    0.0000   -0.0000    0.0022   -0.0000    0.0015   -0.0000
    29 N1     *f2+       0.0000   -0.0000   -0.0000   -0.0000    0.0000    0.0000    0.0000   -0.0000   -0.0000    0.0000
    30 N1     *f3+       0.0000   -0.0000   -0.0000    0.0000    0.0000   -0.0000    0.0000    0.0000   -0.0000   -0.0000
    31 N2     1s         0.7106    0.7047   -0.0007    0.0034    0.0033   -0.0000   -0.0000    0.0000   -0.0000   -0.0042
    32 N2     2s         0.0003   -0.0003    0.6936    0.7490    0.1379    0.0000    0.0000    0.0000   -0.0000   -0.2300
    33 N2     *s        -0.0012   -0.0009    0.0058    0.0101    0.0079    0.0000    0.0000   -0.0000    0.0000   -0.0043
    34 N2     *s        -0.0002    0.0008   -0.0382   -0.0356    0.0174    0.0000    0.0000    0.0000    0.0000   -0.1160
    35 N2     2px        0.0000    0.0000    0.0000   -0.0000   -0.0000   -0.0000    0.6247   -0.0000    0.6776    0.0000
    36 N2     *px       -0.0000   -0.0000   -0.0000   -0.0000   -0.0000    0.0000   -0.0144    0.0000   -0.0233    0.0000
    37 N2     *px       -0.0000   -0.0000   -0.0000   -0.0000    0.0000   -0.0000    0.0770   -0.0000    0.1194    0.0000
    38 N2     2py        0.0000    0.0000   -0.0000   -0.0000   -0.0000    0.6246    0.0000    0.6776    0.0000    0.0000
    39 N2     *py       -0.0000   -0.0000    0.0000    0.0000    0.0000   -0.0144   -0.0000   -0.0233   -0.0000   -0.0000
    40 N2     *py       -0.0000   -0.0000    0.0000    0.0000    0.0000    0.0770    0.0000    0.1194    0.0000    0.0000
    41 N2     2pz       -0.0023   -0.0023   -0.0420    0.1022    0.6284    0.0000   -0.0000    0.0000   -0.0000    0.7225
    42 N2     *pz        0.0016    0.0018   -0.0062   -0.0004    0.0012    0.0000    0.0000    0.0000    0.0000   -0.0378
    43 N2     *pz        0.0005    0.0001   -0.0003   -0.0081    0.0219   -0.0000   -0.0000    0.0000   -0.0000    0.2557
    44 N2     *d2-      -0.0000   -0.0000    0.0000    0.0000    0.0000    0.0000    0.0000    0.0000    0.0000    0.0000
    45 N2     *d2-       0.0000    0.0000   -0.0000   -0.0000   -0.0000   -0.0000    0.0000   -0.0000    0.0000   -0.0000
    46 N2     *d1-      -0.0000    0.0000   -0.0000    0.0000    0.0000   -0.0024   -0.0000    0.0009    0.0000    0.0000
    47 N2     *d1-      -0.0000   -0.0000   -0.0000    0.0000    0.0000   -0.0205   -0.0000    0.0106    0.0000    0.0000
    48 N2     *d0       -0.0001    0.0000    0.0015   -0.0014   -0.0048   -0.0000   -0.0000   -0.0000   -0.0000    0.0059
    49 N2     *d0        0.0002   -0.0000    0.0090   -0.0035   -0.0218   -0.0000    0.0000   -0.0000    0.0000    0.0101
    50 N2     *d1+      -0.0000   -0.0000   -0.0000   -0.0000   -0.0000    0.0000   -0.0024   -0.0000    0.0009   -0.0000
    51 N2     *d1+       0.0000    0.0000   -0.0000   -0.0000    0.0000    0.0000   -0.0205   -0.0000    0.0106   -0.0000
    52 N2     *d2+       0.0000    0.0000    0.0000   -0.0000   -0.0000   -0.0000   -0.0000   -0.0000   -0.0000    0.0000
    53 N2     *d2+       0.0000   -0.0000   -0.0000    0.0000    0.0000   -0.0000   -0.0000   -0.0000   -0.0000   -0.0000
    54 N2     *f3-       0.0000   -0.0000    0.0000   -0.0000    0.0000   -0.0000   -0.0000   -0.0000   -0.0000   -0.0000
    55 N2     *f2-       0.0000    0.0000    0.0000    0.0000   -0.0000    0.0000   -0.0000   -0.0000    0.0000    0.0000
    56 N2     *f1-      -0.0000    0.0000   -0.0000   -0.0000    0.0000    0.0022    0.0000   -0.0015   -0.0000    0.0000
    57 N2     *f0       -0.0001    0.0001   -0.0018    0.0005    0.0024   -0.0000   -0.0000   -0.0000    0.0000   -0.0019
    58 N2     *f1+      -0.0000   -0.0000   -0.0000   -0.0000   -0.0000   -0.0000    0.0022    0.0000   -0.0015   -0.0000
    59 N2     *f2+      -0.0000   -0.0000    0.0000   -0.0000   -0.0000    0.0000   -0.0000    0.0000    0.0000    0.0000
    60 N2     *f3+       0.0000    0.0000    0.0000   -0.0000    0.0000    0.0000   -0.0000    0.0000   -0.0000    0.0000


      Orbital                11        12        13        14        15        16        17        18        19        20
      Energy             0.0000    0.0000    0.0000    0.0000    0.0000    0.0000    0.0000    0.0000    0.0000    0.0000
      Occ. No.           0.0000    0.0000    0.0000    0.0000    0.0000    0.0000    0.0000    0.0000    0.0000    0.0000

     1 N1     1s         0.0757   -0.0000   -0.0000   -0.2630   -0.0000   -0.0000    0.2195   -0.3801    0.0000    0.0000
     2 N1     2s         0.4792   -0.0000   -0.0000   -1.3084    0.0000   -0.0000    1.0633   -1.7300    0.0000    0.0000
     3 N1     *s        -0.0272    0.0000    0.0000    0.0686   -0.0000    0.0000   -0.0683    0.0606   -0.0000   -0.0000
     4 N1     *s        -0.0087    0.0000    0.0000    1.4610   -0.0000    0.0000   -0.9321    2.5932   -0.0000   -0.0000
     5 N1     2px        0.0000   -0.5260   -0.0000    0.0000    0.0000    0.4784   -0.0000    0.0000   -0.0000    0.0629
     6 N1     *px        0.0000   -0.3303   -0.0000   -0.0000    0.0000    0.3668   -0.0000    0.0000    0.0000   -0.0632
     7 N1     *px       -0.0000    0.9190    0.0000    0.0000   -0.0000   -1.1821    0.0000   -0.0000   -0.0000    0.0931
     8 N1     2py        0.0000    0.0000   -0.5260    0.0000    0.4784   -0.0000   -0.0000    0.0000    0.0629    0.0000
     9 N1     *py        0.0000    0.0000   -0.3303    0.0000    0.3668   -0.0000   -0.0000    0.0000   -0.0632   -0.0000
    10 N1     *py       -0.0000   -0.0000    0.9190   -0.0000   -1.1821    0.0000    0.0000   -0.0000    0.0931    0.0000
    11 N1     2pz       -0.4326   -0.0000    0.0000    0.2319    0.0000    0.0000    0.3103   -0.1412    0.0000    0.0000
    12 N1     *pz       -0.3194   -0.0000    0.0000    0.2594    0.0000    0.0000    0.3380   -0.1619   -0.0000    0.0000
    13 N1     *pz        1.4150    0.0000   -0.0000   -0.6432   -0.0000   -0.0000   -0.7109    1.1424   -0.0000   -0.0000
    14 N1     *d2-      -0.0000   -0.0000    0.0000    0.0000    0.0000    0.0000   -0.0000    0.0000   -0.0000   -0.0000
    15 N1     *d2-       0.0000    0.0000   -0.0000   -0.0000    0.0000    0.0000    0.0000   -0.0000    0.0000    0.0000
    16 N1     *d1-      -0.0000   -0.0000    0.0038    0.0000    0.0046   -0.0000    0.0000   -0.0000    0.0137    0.0000
    17 N1     *d1-      -0.0000    0.0000   -0.0075   -0.0000    0.0357   -0.0000   -0.0000   -0.0000   -0.6567   -0.0000
    18 N1     *d0       -0.0210   -0.0000    0.0000    0.0052    0.0000    0.0000   -0.0068   -0.0098   -0.0000    0.0000
    19 N1     *d0        0.1202    0.0000   -0.0000    0.0210   -0.0000    0.0000    0.2182   -0.1491   -0.0000    0.0000
    20 N1     *d1+      -0.0000    0.0038    0.0000    0.0000    0.0000    0.0046    0.0000    0.0000   -0.0000    0.0137
    21 N1     *d1+      -0.0000   -0.0075   -0.0000    0.0000    0.0000    0.0357   -0.0000   -0.0000    0.0000   -0.6567
    22 N1     *d2+       0.0000    0.0000    0.0000    0.0000   -0.0000   -0.0000    0.0000    0.0000   -0.0000    0.0000
    23 N1     *d2+      -0.0000   -0.0000   -0.0000   -0.0000   -0.0000    0.0000   -0.0000   -0.0000    0.0000   -0.0000
    24 N1     *f3-      -0.0000   -0.0000    0.0000    0.0000    0.0000    0.0000   -0.0000    0.0000    0.0000   -0.0000
    25 N1     *f2-       0.0000    0.0000    0.0000    0.0000   -0.0000    0.0000   -0.0000   -0.0000   -0.0000   -0.0000
    26 N1     *f1-      -0.0000    0.0000   -0.0036    0.0000   -0.0033    0.0000    0.0000   -0.0000   -0.0152   -0.0000
    27 N1     *f0        0.0110    0.0000    0.0000    0.0000   -0.0000    0.0000    0.0126    0.0119    0.0000   -0.0000
    28 N1     *f1+      -0.0000   -0.0036   -0.0000    0.0000   -0.0000   -0.0033   -0.0000   -0.0000    0.0000   -0.0152
    29 N1     *f2+       0.0000   -0.0000    0.0000   -0.0000   -0.0000   -0.0000    0.0000    0.0000    0.0000    0.0000
    30 N1     *f3+      -0.0000   -0.0000    0.0000    0.0000   -0.0000    0.0000   -0.0000    0.0000    0.0000   -0.0000
    31 N2     1s        -0.0758   -0.0000   -0.0000   -0.2630   -0.0000   -0.0000    0.2196    0.3801   -0.0000   -0.0000
    32 N2     2s        -0.4796   -0.0000   -0.0000   -1.3082   -0.0000   -0.0000    1.0638    1.7300   -0.0000   -0.0000
    33 N2     *s         0.0272    0.0000    0.0000    0.0686    0.0000    0.0000   -0.0683   -0.0607    0.0000    0.0000
    34 N2     *s         0.0092    0.0000    0.0000    1.4608    0.0000    0.0000   -0.9327   -2.5931    0.0000    0.0000
    35 N2     2px        0.0000   -0.5260   -0.0000    0.0000   -0.0000   -0.4784   -0.0000    0.0000   -0.0000    0.0628
    36 N2     *px        0.0000   -0.3303   -0.0000    0.0000   -0.0000   -0.3668    0.0000   -0.0000    0.0000   -0.0632
    37 N2     *px       -0.0000    0.9189    0.0000   -0.0000    0.0000    1.1821   -0.0000   -0.0000   -0.0000    0.0932
    38 N2     2py        0.0000    0.0000   -0.5260    0.0000   -0.4784    0.0000   -0.0000    0.0000    0.0628    0.0000
    39 N2     *py       -0.0000    0.0000   -0.3303    0.0000   -0.3668    0.0000   -0.0000   -0.0000   -0.0632   -0.0000
    40 N2     *py       -0.0000   -0.0000    0.9189   -0.0000    1.1821   -0.0000    0.0000    0.0000    0.0932    0.0000
    41 N2     2pz       -0.4327   -0.0000   -0.0000   -0.2317    0.0000   -0.0000   -0.3102   -0.1411   -0.0000    0.0000
    42 N2     *pz       -0.3195   -0.0000   -0.0000   -0.2593   -0.0000   -0.0000   -0.3381   -0.1618    0.0000    0.0000
    43 N2     *pz        1.4154    0.0000    0.0000    0.6427   -0.0000    0.0000    0.7110    1.1422   -0.0000   -0.0000
    44 N2     *d2-       0.0000   -0.0000    0.0000   -0.0000    0.0000   -0.0000    0.0000    0.0000   -0.0000   -0.0000
    45 N2     *d2-      -0.0000   -0.0000   -0.0000    0.0000   -0.0000    0.0000   -0.0000   -0.0000    0.0000   -0.0000
    46 N2     *d1-      -0.0000    0.0000   -0.0038   -0.0000    0.0046   -0.0000   -0.0000   -0.0000   -0.0137   -0.0000
    47 N2     *d1-       0.0000   -0.0000    0.0075    0.0000    0.0357   -0.0000    0.0000    0.0000    0.6567    0.0000
    48 N2     *d0        0.0210    0.0000    0.0000    0.0052    0.0000   -0.0000   -0.0068    0.0098    0.0000   -0.0000
    49 N2     *d0       -0.1202   -0.0000   -0.0000    0.0210    0.0000    0.0000    0.2182    0.1491   -0.0000   -0.0000
    50 N2     *d1+       0.0000   -0.0038   -0.0000   -0.0000    0.0000    0.0046    0.0000    0.0000    0.0000   -0.0137
    51 N2     *d1+       0.0000    0.0075    0.0000   -0.0000    0.0000    0.0357    0.0000    0.0000   -0.0000    0.6567
    52 N2     *d2+       0.0000    0.0000    0.0000    0.0000    0.0000    0.0000    0.0000    0.0000    0.0000    0.0000
    53 N2     *d2+      -0.0000   -0.0000    0.0000   -0.0000   -0.0000   -0.0000   -0.0000   -0.0000    0.0000   -0.0000
    54 N2     *f3-      -0.0000    0.0000    0.0000    0.0000   -0.0000    0.0000    0.0000   -0.0000   -0.0000    0.0000
    55 N2     *f2-      -0.0000   -0.0000   -0.0000    0.0000    0.0000    0.0000   -0.0000    0.0000    0.0000    0.0000
    56 N2     *f1-      -0.0000    0.0000   -0.0036    0.0000    0.0033   -0.0000    0.0000    0.0000   -0.0152   -0.0000
    57 N2     *f0        0.0110    0.0000    0.0000   -0.0000    0.0000   -0.0000   -0.0126    0.0119   -0.0000    0.0000
    58 N2     *f1+      -0.0000   -0.0036   -0.0000    0.0000    0.0000    0.0033   -0.0000   -0.0000    0.0000   -0.0152
    59 N2     *f2+       0.0000   -0.0000    0.0000    0.0000    0.0000    0.0000    0.0000    0.0000   -0.0000    0.0000
    60 N2     *f3+       0.0000    0.0000   -0.0000   -0.0000   -0.0000    0.0000    0.0000    0.0000   -0.0000    0.0000


      Orbital                21        22        23        24        25        26        27        28        29        30
      Energy             0.0000    0.0000    0.0000    0.0000    0.0000    0.0000    0.0000    0.0000    0.0000    0.0000
      Occ. No.           0.0000    0.0000    0.0000    0.0000    0.0000    0.0000    0.0000    0.0000    0.0000    0.0000

     1 N1     1s        -0.0000   -0.0000   -0.0322    0.0000   -0.0000   -0.0000    0.0000   -0.2680   -0.0434    0.0000
     2 N1     2s        -0.0000   -0.0000   -0.3067    0.0000   -0.0000   -0.0000   -0.0000   -1.1503   -0.1381    0.0000
     3 N1     *s        -0.0000   -0.0000   -0.0285    0.0000   -0.0000    0.0000    0.0000   -0.0405    0.0319   -0.0000
     4 N1     *s         0.0000    0.0000    0.1957   -0.0000    0.0000    0.0000    0.0000    2.4329    0.0318   -0.0000
     5 N1     2px       -0.0000   -0.0000    0.0000    0.0000    0.0000   -0.0289   -0.0000    0.0000    0.0000   -0.0000
     6 N1     *px       -0.0000    0.0000   -0.0000    0.0000   -0.0000   -0.0905   -0.0000    0.0000    0.0000    0.0000
     7 N1     *px        0.0000    0.0000   -0.0000   -0.0000   -0.0000    0.3253    0.0000   -0.0000   -0.0000    0.0000
     8 N1     2py        0.0000    0.0000    0.0000   -0.0000   -0.0000    0.0000   -0.0289    0.0000    0.0000   -2.4103
     9 N1     *py       -0.0000   -0.0000    0.0000    0.0000    0.0000    0.0000   -0.0905    0.0000   -0.0000    2.2314
    10 N1     *py       -0.0000    0.0000   -0.0000    0.0000   -0.0000   -0.0000    0.3253   -0.0000   -0.0000    0.4193
    11 N1     2pz        0.0000   -0.0000   -0.4098   -0.0000   -0.0000    0.0000   -0.0000    0.4224    2.3322    0.0000
    12 N1     *pz       -0.0000   -0.0000   -0.0328    0.0000   -0.0000   -0.0000    0.0000   -0.4490   -2.2198   -0.0000
    13 N1     *pz        0.0000    0.0000    0.3727   -0.0000    0.0000    0.0000    0.0000    1.3806   -0.3094    0.0000
    14 N1     *d2-      -0.0000   -0.0164   -0.0000    0.0000    0.0089    0.0000    0.0000    0.0000    0.0000    0.0000
    15 N1     *d2-       0.0000    0.7030    0.0000   -0.0000   -0.7244   -0.0000   -0.0000   -0.0000   -0.0000   -0.0000
    16 N1     *d1-      -0.0000    0.0000   -0.0000    0.0000   -0.0000   -0.0000    0.0034   -0.0000    0.0000   -0.0205
    17 N1     *d1-       0.0000    0.0000   -0.0000   -0.0000   -0.0000   -0.0000    0.8084   -0.0000   -0.0000   -0.0027
    18 N1     *d0       -0.0000   -0.0000    0.0176    0.0000    0.0000   -0.0000   -0.0000    0.0017    0.0521   -0.0000
    19 N1     *d0       -0.0000   -0.0000    0.5910   -0.0000    0.0000    0.0000    0.0000    1.0605    0.1199    0.0000
    20 N1     *d1+       0.0000   -0.0000   -0.0000    0.0000    0.0000    0.0034    0.0000    0.0000    0.0000   -0.0000
    21 N1     *d1+      -0.0000   -0.0000   -0.0000   -0.0000   -0.0000    0.8084    0.0000    0.0000   -0.0000   -0.0000
    22 N1     *d2+      -0.0164    0.0000   -0.0000    0.0089   -0.0000    0.0000   -0.0000   -0.0000    0.0000    0.0000
    23 N1     *d2+       0.7030   -0.0000    0.0000   -0.7244    0.0000   -0.0000    0.0000   -0.0000   -0.0000    0.0000
    24 N1     *f3-       0.0000    0.0000   -0.0000   -0.0000    0.0000   -0.0000   -0.0000    0.0000   -0.0000    0.0000
    25 N1     *f2-       0.0000    0.0080   -0.0000    0.0000    0.0065    0.0000   -0.0000   -0.0000    0.0000    0.0000
    26 N1     *f1-       0.0000    0.0000    0.0000   -0.0000   -0.0000    0.0000   -0.0279    0.0000    0.0000    0.0425
    27 N1     *f0        0.0000   -0.0000   -0.0069   -0.0000   -0.0000    0.0000   -0.0000   -0.0310   -0.1355    0.0000
    28 N1     *f1+      -0.0000   -0.0000    0.0000   -0.0000    0.0000   -0.0279   -0.0000   -0.0000   -0.0000    0.0000
    29 N1     *f2+       0.0080   -0.0000   -0.0000    0.0065   -0.0000   -0.0000   -0.0000    0.0000   -0.0000    0.0000
    30 N1     *f3+       0.0000   -0.0000   -0.0000    0.0000    0.0000    0.0000    0.0000   -0.0000    0.0000    0.0000
    31 N2     1s         0.0000    0.0000   -0.0322   -0.0000   -0.0000    0.0000    0.0000    0.2680   -0.0434    0.0000
    32 N2     2s         0.0000    0.0000   -0.3067   -0.0000   -0.0000    0.0000    0.0000    1.1504   -0.1380    0.0000
    33 N2     *s         0.0000   -0.0000   -0.0285   -0.0000   -0.0000   -0.0000   -0.0000    0.0405    0.0319   -0.0000
    34 N2     *s        -0.0000   -0.0000    0.1956    0.0000    0.0000   -0.0000   -0.0000   -2.4329    0.0317   -0.0000
    35 N2     2px       -0.0000   -0.0000   -0.0000   -0.0000   -0.0000    0.0289    0.0000    0.0000   -0.0000   -0.0000
    36 N2     *px        0.0000    0.0000    0.0000    0.0000    0.0000    0.0905    0.0000   -0.0000    0.0000    0.0000
    37 N2     *px        0.0000    0.0000   -0.0000    0.0000    0.0000   -0.3253   -0.0000   -0.0000    0.0000    0.0000
    38 N2     2py        0.0000   -0.0000    0.0000    0.0000    0.0000   -0.0000    0.0289    0.0000    0.0000   -2.4114
    39 N2     *py       -0.0000    0.0000   -0.0000   -0.0000   -0.0000   -0.0000    0.0905   -0.0000   -0.0000    2.2325
    40 N2     *py       -0.0000   -0.0000   -0.0000   -0.0000   -0.0000    0.0000   -0.3253    0.0000    0.0000    0.4195
    41 N2     2pz       -0.0000    0.0000    0.4098    0.0000    0.0000    0.0000   -0.0000    0.4225   -2.3322   -0.0000
    42 N2     *pz       -0.0000   -0.0000    0.0328    0.0000    0.0000   -0.0000    0.0000   -0.4490    2.2198    0.0000
    43 N2     *pz        0.0000    0.0000   -0.3727   -0.0000   -0.0000   -0.0000    0.0000    1.3806    0.3095    0.0000
    44 N2     *d2-      -0.0000   -0.0164    0.0000   -0.0000   -0.0089    0.0000    0.0000    0.0000    0.0000    0.0000
    45 N2     *d2-       0.0000    0.7029   -0.0000    0.0000    0.7245    0.0000   -0.0000   -0.0000    0.0000   -0.0000
    46 N2     *d1-      -0.0000   -0.0000    0.0000    0.0000   -0.0000   -0.0000    0.0034    0.0000   -0.0000    0.0205
    47 N2     *d1-      -0.0000   -0.0000    0.0000   -0.0000    0.0000   -0.0000    0.8084   -0.0000    0.0000    0.0027
    48 N2     *d0       -0.0000    0.0000    0.0176   -0.0000    0.0000    0.0000    0.0000   -0.0017    0.0521    0.0000
    49 N2     *d0        0.0000    0.0000    0.5910    0.0000    0.0000    0.0000   -0.0000   -1.0605    0.1199   -0.0000
    50 N2     *d1+       0.0000    0.0000   -0.0000   -0.0000    0.0000    0.0034    0.0000   -0.0000    0.0000    0.0000
    51 N2     *d1+       0.0000    0.0000   -0.0000    0.0000   -0.0000    0.8084    0.0000    0.0000   -0.0000    0.0000
    52 N2     *d2+      -0.0164    0.0000   -0.0000   -0.0089    0.0000    0.0000   -0.0000    0.0000    0.0000    0.0000
    53 N2     *d2+       0.7029   -0.0000   -0.0000    0.7245   -0.0000   -0.0000    0.0000    0.0000   -0.0000    0.0000
    54 N2     *f3-       0.0000   -0.0000    0.0000    0.0000    0.0000    0.0000   -0.0000   -0.0000    0.0000    0.0000
    55 N2     *f2-      -0.0000   -0.0080   -0.0000    0.0000    0.0065    0.0000   -0.0000    0.0000    0.0000    0.0000
    56 N2     *f1-       0.0000   -0.0000    0.0000    0.0000    0.0000   -0.0000    0.0279   -0.0000    0.0000    0.0425
    57 N2     *f0       -0.0000   -0.0000    0.0069   -0.0000    0.0000    0.0000   -0.0000   -0.0310    0.1355   -0.0000
    58 N2     *f1+      -0.0000   -0.0000    0.0000    0.0000   -0.0000    0.0279    0.0000    0.0000    0.0000    0.0000
    59 N2     *f2+      -0.0080    0.0000   -0.0000    0.0065   -0.0000   -0.0000   -0.0000    0.0000    0.0000   -0.0000
    60 N2     *f3+       0.0000   -0.0000   -0.0000   -0.0000   -0.0000    0.0000    0.0000    0.0000   -0.0000   -0.0000


      Orbital                31        32        33        34        35        36        37        38        39        40
      Energy             0.0000    0.0000    0.0000    0.0000    0.0000    0.0000    0.0000    0.0000    0.0000    0.0000
      Occ. No.           0.0000    0.0000    0.0000    0.0000    0.0000    0.0000    0.0000    0.0000    0.0000    0.0000

     1 N1     1s        -0.0000   -0.0000    0.0000   -0.0685    0.0000   -0.0000   -0.1504    0.0000    0.0000    0.0000
     2 N1     2s        -0.0000   -0.0000    0.0000   -0.1781    0.0000   -0.0000   -0.2861    0.0000    0.0000    0.0000
     3 N1     *s         0.0000    0.0000   -0.0000    0.0699   -0.0000    0.0000    0.2285   -0.0000   -0.0000   -0.0000
     4 N1     *s         0.0000    0.0000   -0.0000    0.1070   -0.0000    0.0000    0.1882   -0.0000   -0.0000   -0.0000
     5 N1     2px       -2.4103    0.0000    2.4276    0.0000   -0.0000    0.1721    0.0000   -0.0000   -0.0000   -0.0000
     6 N1     *px        2.2314   -0.0000   -2.2758   -0.0000    0.0000   -0.1651   -0.0000    0.0000    0.0000    0.0000
     7 N1     *px        0.4193   -0.0000   -0.2935    0.0000    0.0000   -0.0398   -0.0000    0.0000    0.0000    0.0000
     8 N1     2py        0.0000    2.4277   -0.0000    0.0000    0.1721    0.0000    0.0000    0.0000   -0.0000   -0.0000
     9 N1     *py       -0.0000   -2.2758    0.0000    0.0000   -0.1651   -0.0000   -0.0000   -0.0000    0.0000    0.0000
    10 N1     *py       -0.0000   -0.2935    0.0000   -0.0000   -0.0398   -0.0000   -0.0000    0.0000    0.0000    0.0000
    11 N1     2pz       -0.0000   -0.0000   -0.0000   -2.3127    0.0000    0.0000   -0.5707    0.0000    0.0000    0.0000
    12 N1     *pz        0.0000    0.0000    0.0000    2.1512   -0.0000   -0.0000    0.6001   -0.0000   -0.0000   -0.0000
    13 N1     *pz        0.0000    0.0000   -0.0000    0.4098   -0.0000    0.0000    0.0307   -0.0000   -0.0000   -0.0000
    14 N1     *d2-      -0.0000   -0.0000    0.0000    0.0000   -0.0000   -0.0000   -0.0000   -0.0000    0.0411   -0.0000
    15 N1     *d2-      -0.0000   -0.0000    0.0000    0.0000    0.0000    0.0000    0.0000    0.0000   -0.0011    0.0000
    16 N1     *d1-       0.0000    0.0066   -0.0000   -0.0000   -0.0957   -0.0000   -0.0000    0.0000   -0.0000    0.0000
    17 N1     *d1-       0.0000    0.0271   -0.0000   -0.0000   -0.0125   -0.0000   -0.0000   -0.0000    0.0000    0.0000
    18 N1     *d0       -0.0000   -0.0000    0.0000    0.0632    0.0000    0.0000   -0.0483    0.0000   -0.0000    0.0000
    19 N1     *d0        0.0000    0.0000   -0.0000    0.1329   -0.0000    0.0000    0.0439   -0.0000   -0.0000   -0.0000
    20 N1     *d1+      -0.0205    0.0000    0.0066   -0.0000    0.0000   -0.0957    0.0000   -0.0000   -0.0000   -0.0000
    21 N1     *d1+      -0.0027    0.0000    0.0271    0.0000    0.0000   -0.0125    0.0000    0.0000    0.0000    0.0000
    22 N1     *d2+       0.0000   -0.0000   -0.0000   -0.0000    0.0000   -0.0000    0.0000    0.0411    0.0000    0.0000
    23 N1     *d2+      -0.0000   -0.0000   -0.0000   -0.0000   -0.0000    0.0000   -0.0000   -0.0011   -0.0000   -0.0000
    24 N1     *f3-      -0.0000   -0.0000    0.0000    0.0000   -0.0000    0.0000   -0.0000    0.0000   -0.0000   -0.0000
    25 N1     *f2-      -0.0000   -0.0000   -0.0000   -0.0000    0.0000   -0.0000   -0.0000    0.0000   -0.7039   -0.0000
    26 N1     *f1-      -0.0000    0.0228   -0.0000    0.0000    0.6893    0.0000    0.0000    0.0000   -0.0000    0.0000
    27 N1     *f0       -0.0000    0.0000    0.0000   -0.1703    0.0000   -0.0000   -0.6739    0.0000   -0.0000   -0.0000
    28 N1     *f1+       0.0425    0.0000    0.0228    0.0000   -0.0000    0.6893   -0.0000   -0.0000   -0.0000   -0.0000
    29 N1     *f2+       0.0000   -0.0000   -0.0000    0.0000    0.0000    0.0000   -0.0000   -0.7039   -0.0000    0.0000
    30 N1     *f3+      -0.0000   -0.0000    0.0000    0.0000   -0.0000    0.0000   -0.0000   -0.0000   -0.0000    0.7079
    31 N2     1s         0.0000    0.0000   -0.0000    0.0685    0.0000   -0.0000   -0.1504    0.0000   -0.0000   -0.0000
    32 N2     2s         0.0000    0.0000   -0.0000    0.1782    0.0000   -0.0000   -0.2862    0.0000   -0.0000   -0.0000
    33 N2     *s         0.0000   -0.0000    0.0000   -0.0699   -0.0000    0.0000    0.2285   -0.0000    0.0000    0.0000
    34 N2     *s        -0.0000   -0.0000    0.0000   -0.1070   -0.0000   -0.0000    0.1882   -0.0000    0.0000    0.0000
    35 N2     2px       -2.4114   -0.0000   -2.4265    0.0000   -0.0000    0.1722   -0.0000    0.0000    0.0000   -0.0000
    36 N2     *px        2.2324    0.0000    2.2747   -0.0000    0.0000   -0.1651    0.0000   -0.0000   -0.0000    0.0000
    37 N2     *px        0.4195    0.0000    0.2933   -0.0000    0.0000   -0.0398    0.0000   -0.0000    0.0000    0.0000
    38 N2     2py        0.0000   -2.4265    0.0000    0.0000    0.1722    0.0000    0.0000    0.0000    0.0000   -0.0000
    39 N2     *py       -0.0000    2.2747   -0.0000   -0.0000   -0.1651   -0.0000   -0.0000    0.0000   -0.0000    0.0000
    40 N2     *py       -0.0000    0.2933   -0.0000    0.0000   -0.0398   -0.0000   -0.0000   -0.0000   -0.0000    0.0000
    41 N2     2pz       -0.0000   -0.0000   -0.0000   -2.3127   -0.0000    0.0000    0.5707   -0.0000    0.0000    0.0000
    42 N2     *pz       -0.0000   -0.0000   -0.0000    2.1511    0.0000   -0.0000   -0.6001    0.0000   -0.0000   -0.0000
    43 N2     *pz        0.0000    0.0000    0.0000    0.4098    0.0000    0.0000   -0.0307    0.0000   -0.0000   -0.0000
    44 N2     *d2-      -0.0000    0.0000   -0.0000    0.0000   -0.0000   -0.0000    0.0000   -0.0000    0.0411   -0.0000
    45 N2     *d2-      -0.0000   -0.0000   -0.0000   -0.0000    0.0000    0.0000   -0.0000    0.0000   -0.0011    0.0000
    46 N2     *d1-      -0.0000    0.0066   -0.0000   -0.0000    0.0957    0.0000    0.0000   -0.0000   -0.0000   -0.0000
    47 N2     *d1-      -0.0000    0.0270   -0.0000   -0.0000    0.0125    0.0000    0.0000    0.0000    0.0000    0.0000
    48 N2     *d0       -0.0000    0.0000   -0.0000   -0.0632    0.0000   -0.0000   -0.0483    0.0000    0.0000    0.0000
    49 N2     *d0        0.0000   -0.0000   -0.0000   -0.1329   -0.0000    0.0000    0.0439   -0.0000    0.0000    0.0000
    50 N2     *d1+       0.0205    0.0000    0.0066    0.0000   -0.0000    0.0957   -0.0000   -0.0000    0.0000   -0.0000
    51 N2     *d1+       0.0027    0.0000    0.0270   -0.0000   -0.0000    0.0125   -0.0000   -0.0000   -0.0000    0.0000
    52 N2     *d2+       0.0000    0.0000    0.0000    0.0000    0.0000   -0.0000    0.0000    0.0411    0.0000   -0.0000
    53 N2     *d2+      -0.0000    0.0000   -0.0000    0.0000   -0.0000    0.0000   -0.0000   -0.0011   -0.0000    0.0000
    54 N2     *f3-       0.0000    0.0000    0.0000    0.0000    0.0000   -0.0000   -0.0000    0.0000    0.0000   -0.0000
    55 N2     *f2-       0.0000    0.0000    0.0000    0.0000    0.0000    0.0000   -0.0000   -0.0000    0.7038    0.0000
    56 N2     *f1-      -0.0000   -0.0228    0.0000   -0.0000    0.6893    0.0000    0.0000    0.0000    0.0000   -0.0000
    57 N2     *f0       -0.0000   -0.0000   -0.0000   -0.1703   -0.0000    0.0000    0.6739   -0.0000   -0.0000   -0.0000
    58 N2     *f1+       0.0425   -0.0000   -0.0228    0.0000   -0.0000    0.6893   -0.0000    0.0000   -0.0000   -0.0000
    59 N2     *f2+       0.0000   -0.0000    0.0000    0.0000   -0.0000    0.0000    0.0000    0.7038    0.0000    0.0000
    60 N2     *f3+      -0.0000   -0.0000   -0.0000    0.0000    0.0000    0.0000   -0.0000    0.0000   -0.0000    0.7060


      Orbital                41        42        43        44        45        46        47        48        49        50
      Energy             0.0000    0.0000    0.0000    0.0000    0.0000    0.0000    0.0000    0.0000    0.0000    0.0000
      Occ. No.           0.0000    0.0000    0.0000    0.0000    0.0000    0.0000    0.0000    0.0000    0.0000    0.0000

     1 N1     1s        -0.0000   -0.0000    0.0000    0.0000   -0.0000    0.0000    0.0000   -0.1451   -0.0000   -0.0000
     2 N1     2s         0.0000   -0.0000    0.0000    0.0000   -0.0000    0.0000    0.0000   -0.3235   -0.0000   -0.0000
     3 N1     *s        -0.0000    0.0000   -0.0000   -0.0000    0.0000    0.0000   -0.0000    0.1965    0.0000    0.0000
     4 N1     *s        -0.0000    0.0000    0.0000   -0.0000    0.0000   -0.0000    0.0000    0.2149   -0.0000    0.0000
     5 N1     2px       -0.0000    0.0000   -0.0000    0.0000   -0.0000    0.0863   -0.0000   -0.0000    0.0000    0.0533
     6 N1     *px        0.0000   -0.0000    0.0000   -0.0000    0.0000   -0.0743    0.0000    0.0000   -0.0000   -0.0466
     7 N1     *px        0.0000   -0.0000    0.0000   -0.0000    0.0000   -0.0405    0.0000    0.0000   -0.0000   -0.0374
     8 N1     2py        0.0000   -0.0000   -0.0000    0.0000    0.0000    0.0000    0.0863    0.0000    0.0533   -0.0000
     9 N1     *py       -0.0000    0.0000    0.0000   -0.0000   -0.0000   -0.0000   -0.0743    0.0000   -0.0466    0.0000
    10 N1     *py       -0.0000    0.0000    0.0000   -0.0000   -0.0000   -0.0000   -0.0405    0.0000   -0.0374    0.0000
    11 N1     2pz        0.0000    0.0000    0.0000   -0.0000   -0.0000   -0.0000   -0.0000   -0.3851    0.0000    0.0000
    12 N1     *pz       -0.0000    0.0000   -0.0000    0.0000    0.0000    0.0000    0.0000    0.3709    0.0000   -0.0000
    13 N1     *pz        0.0000   -0.0000    0.0000   -0.0000    0.0000   -0.0000    0.0000    0.0705   -0.0000    0.0000
    14 N1     *d2-       0.0000    0.0000   -0.0000   -0.0000    0.0714    0.0000   -0.0000    0.0000    0.0000    0.0000
    15 N1     *d2-      -0.0000   -0.0000    0.0000    0.0000   -0.0191   -0.0000    0.0000   -0.0000   -0.0000   -0.0000
    16 N1     *d1-      -0.0000   -0.0000   -0.0000   -0.0000    0.0000   -0.0000   -0.2824   -0.0000   -0.8116    0.0000
    17 N1     *d1-      -0.0000    0.0000    0.0000    0.0000   -0.0000    0.0000    0.0803    0.0000    0.3721   -0.0000
    18 N1     *d0        0.0000    0.0000   -0.0000   -0.0000   -0.0000   -0.0000   -0.0000    0.4709   -0.0000   -0.0000
    19 N1     *d0       -0.0000   -0.0000    0.0000    0.0000    0.0000   -0.0000    0.0000   -0.1566   -0.0000    0.0000
    20 N1     *d1+      -0.0000    0.0000   -0.0000    0.0000    0.0000   -0.2824    0.0000    0.0000   -0.0000   -0.8116
    21 N1     *d1+       0.0000   -0.0000    0.0000    0.0000   -0.0000    0.0803   -0.0000   -0.0000    0.0000    0.3721
    22 N1     *d2+       0.0000   -0.0000   -0.0000    0.0713    0.0000   -0.0000   -0.0000   -0.0000   -0.0000    0.0000
    23 N1     *d2+      -0.0000   -0.0000    0.0000   -0.0191   -0.0000    0.0000    0.0000    0.0000    0.0000   -0.0000
    24 N1     *f3-       0.7079   -0.0000   -0.7063   -0.0000   -0.0000    0.0000   -0.0000   -0.0000    0.0000    0.0000
    25 N1     *f2-       0.0000   -0.0000    0.0000   -0.0000    0.7060    0.0000    0.0000   -0.0000    0.0000    0.0000
    26 N1     *f1-      -0.0000   -0.0000   -0.0000   -0.0000   -0.0000   -0.0000   -0.6664   -0.0000   -0.1062    0.0000
    27 N1     *f0       -0.0000   -0.0000    0.0000    0.0000   -0.0000    0.0000   -0.0000    0.5675   -0.0000    0.0000
    28 N1     *f1+      -0.0000   -0.0000    0.0000   -0.0000    0.0000   -0.6664    0.0000   -0.0000   -0.0000   -0.1062
    29 N1     *f2+       0.0000    0.0000    0.0000    0.7060    0.0000    0.0000   -0.0000   -0.0000   -0.0000    0.0000
    30 N1     *f3+       0.0000   -0.7063    0.0000   -0.0000    0.0000    0.0000   -0.0000    0.0000   -0.0000   -0.0000
    31 N2     1s         0.0000   -0.0000   -0.0000    0.0000   -0.0000    0.0000    0.0000    0.1452   -0.0000   -0.0000
    32 N2     2s         0.0000   -0.0000   -0.0000    0.0000   -0.0000    0.0000    0.0000    0.3236   -0.0000   -0.0000
    33 N2     *s        -0.0000    0.0000    0.0000   -0.0000    0.0000   -0.0000   -0.0000   -0.1966    0.0000    0.0000
    34 N2     *s        -0.0000    0.0000   -0.0000    0.0000    0.0000    0.0000   -0.0000   -0.2150    0.0000   -0.0000
    35 N2     2px       -0.0000   -0.0000    0.0000    0.0000    0.0000   -0.0862    0.0000   -0.0000    0.0000    0.0533
    36 N2     *px        0.0000    0.0000   -0.0000   -0.0000   -0.0000    0.0743   -0.0000    0.0000   -0.0000   -0.0466
    37 N2     *px        0.0000    0.0000   -0.0000    0.0000   -0.0000    0.0405   -0.0000   -0.0000   -0.0000   -0.0374
    38 N2     2py        0.0000    0.0000    0.0000   -0.0000    0.0000   -0.0000   -0.0862   -0.0000    0.0533   -0.0000
    39 N2     *py       -0.0000   -0.0000   -0.0000    0.0000   -0.0000    0.0000    0.0743    0.0000   -0.0466    0.0000
    40 N2     *py       -0.0000    0.0000    0.0000    0.0000   -0.0000    0.0000    0.0405    0.0000   -0.0374    0.0000
    41 N2     2pz        0.0000   -0.0000    0.0000   -0.0000    0.0000    0.0000    0.0000   -0.3851   -0.0000    0.0000
    42 N2     *pz       -0.0000    0.0000   -0.0000    0.0000   -0.0000    0.0000   -0.0000    0.3709    0.0000   -0.0000
    43 N2     *pz        0.0000   -0.0000    0.0000   -0.0000   -0.0000   -0.0000    0.0000    0.0705    0.0000    0.0000
    44 N2     *d2-      -0.0000   -0.0000   -0.0000    0.0000   -0.0714   -0.0000   -0.0000    0.0000    0.0000    0.0000
    45 N2     *d2-       0.0000    0.0000    0.0000   -0.0000    0.0191    0.0000    0.0000   -0.0000   -0.0000   -0.0000
    46 N2     *d1-       0.0000    0.0000    0.0000   -0.0000   -0.0000   -0.0000   -0.2824   -0.0000    0.8116   -0.0000
    47 N2     *d1-      -0.0000   -0.0000   -0.0000    0.0000    0.0000    0.0000    0.0803    0.0000   -0.3721    0.0000
    48 N2     *d0       -0.0000   -0.0000    0.0000    0.0000   -0.0000   -0.0000    0.0000   -0.4709   -0.0000    0.0000
    49 N2     *d0        0.0000    0.0000   -0.0000   -0.0000    0.0000    0.0000   -0.0000    0.1566    0.0000   -0.0000
    50 N2     *d1+      -0.0000   -0.0000    0.0000   -0.0000    0.0000   -0.2824    0.0000    0.0000    0.0000    0.8116
    51 N2     *d1+       0.0000    0.0000   -0.0000    0.0000   -0.0000    0.0803   -0.0000   -0.0000   -0.0000   -0.3721
    52 N2     *d2+       0.0000   -0.0000    0.0000   -0.0714   -0.0000   -0.0000    0.0000    0.0000   -0.0000    0.0000
    53 N2     *d2+      -0.0000    0.0000   -0.0000    0.0191    0.0000    0.0000   -0.0000   -0.0000    0.0000   -0.0000
    54 N2     *f3-       0.7060    0.0000    0.7082   -0.0000   -0.0000    0.0000   -0.0000    0.0000   -0.0000    0.0000
    55 N2     *f2-       0.0000    0.0000   -0.0000   -0.0000    0.7061    0.0000   -0.0000    0.0000   -0.0000   -0.0000
    56 N2     *f1-       0.0000   -0.0000   -0.0000    0.0000   -0.0000    0.0000    0.6664    0.0000   -0.1062    0.0000
    57 N2     *f0        0.0000   -0.0000   -0.0000    0.0000    0.0000    0.0000   -0.0000    0.5675    0.0000    0.0000
    58 N2     *f1+      -0.0000    0.0000   -0.0000   -0.0000   -0.0000    0.6664   -0.0000   -0.0000   -0.0000   -0.1062
    59 N2     *f2+      -0.0000   -0.0000   -0.0000    0.7061    0.0000   -0.0000   -0.0000   -0.0000    0.0000   -0.0000
    60 N2     *f3+       0.0000    0.7082   -0.0000   -0.0000    0.0000   -0.0000   -0.0000    0.0000    0.0000    0.0000


      Orbital                51        52        53        54        55        56        57        58        59        60
      Energy             0.0000    0.0000    0.0000    0.0000    0.0000    0.0000    0.0000    0.0000    0.0000    0.0000
      Occ. No.           0.0000    0.0000    0.0000    0.0000    0.0000    0.0000    0.0000    0.0000    0.0000    0.0000

     1 N1     1s         0.0000    0.0000    0.0000   -0.0000   -0.4207   -0.0000   -0.0000    0.3612    1.6056   -1.8520
     2 N1     2s         0.0000    0.0000    0.0000   -0.0000   -0.8607    0.0000   -0.0000    0.5972    3.5527   -4.3655
     3 N1     *s        -0.0000   -0.0000   -0.0000    0.0000    0.6136    0.0000    0.0000   -0.6949   -2.2584    2.3696
     4 N1     *s        -0.0000   -0.0000   -0.0000    0.0000    0.5503   -0.0000    0.0000    0.3819   -2.1620    3.8924
     5 N1     2px       -0.0000   -0.0000    0.0000   -0.0000   -0.0000   -0.0108   -0.0000   -0.0000    0.0000    0.0000
     6 N1     *px        0.0000    0.0000   -0.0000    0.0000    0.0000    0.0490    0.0000    0.0000   -0.0000   -0.0000
     7 N1     *px        0.0000    0.0000   -0.0000    0.0000   -0.0000   -0.1478   -0.0000    0.0000   -0.0000   -0.0000
     8 N1     2py       -0.0000    0.0000   -0.0000   -0.0000   -0.0000    0.0000   -0.0108    0.0000    0.0000   -0.0000
     9 N1     *py        0.0000   -0.0000    0.0000    0.0000    0.0000   -0.0000    0.0490   -0.0000   -0.0000    0.0000
    10 N1     *py        0.0000   -0.0000    0.0000    0.0000    0.0000    0.0000   -0.1478   -0.0000   -0.0000   -0.0000
    11 N1     2pz        0.0000    0.0000    0.0000   -0.0000   -0.2809    0.0000   -0.0000   -0.6676   -0.1548   -0.0376
    12 N1     *pz       -0.0000   -0.0000   -0.0000    0.0000    0.3475   -0.0000    0.0000    0.6580    0.2459   -0.0369
    13 N1     *pz       -0.0000    0.0000   -0.0000    0.0000   -0.0126    0.0000    0.0000    0.7799   -0.0436    1.0292
    14 N1     *d2-       0.8233    0.0000   -0.8288   -0.0000   -0.0000   -0.0000   -0.0000    0.0000   -0.0000    0.0000
    15 N1     *d2-      -0.4034   -0.0000    0.4386    0.0000    0.0000    0.0000    0.0000   -0.0000    0.0000   -0.0000
    16 N1     *d1-       0.0000   -0.0000    0.0000   -0.0000    0.0000   -0.0000    0.8082    0.0000    0.0000   -0.0000
    17 N1     *d1-      -0.0000    0.0000   -0.0000    0.0000   -0.0000    0.0000   -0.5670   -0.0000   -0.0000   -0.0000
    18 N1     *d0       -0.0000   -0.0000   -0.0000   -0.0000    0.7944   -0.0000    0.0000   -0.7100    0.2611   -0.3201
    19 N1     *d0       -0.0000    0.0000    0.0000    0.0000   -0.3964    0.0000    0.0000    0.8567   -0.1980    0.5544
    20 N1     *d1+       0.0000    0.0000    0.0000    0.0000    0.0000    0.8082    0.0000    0.0000    0.0000    0.0000
    21 N1     *d1+      -0.0000   -0.0000   -0.0000   -0.0000   -0.0000   -0.5670   -0.0000   -0.0000   -0.0000   -0.0000
    22 N1     *d2+      -0.0000    0.8228    0.0000   -0.8294    0.0000   -0.0000    0.0000    0.0000   -0.0000    0.0000
    23 N1     *d2+       0.0000   -0.4031   -0.0000    0.4388   -0.0000    0.0000    0.0000   -0.0000    0.0000   -0.0000
    24 N1     *f3-      -0.0000   -0.0000    0.0000    0.0000   -0.0000    0.0000   -0.0000    0.0000   -0.0000   -0.0000
    25 N1     *f2-       0.0417    0.0000    0.0678    0.0000    0.0000   -0.0000   -0.0000   -0.0000    0.0000   -0.0000
    26 N1     *f1-       0.0000   -0.0000    0.0000    0.0000   -0.0000    0.0000   -0.2793    0.0000    0.0000    0.0000
    27 N1     *f0       -0.0000    0.0000   -0.0000    0.0000    0.0172    0.0000    0.0000    0.4625   -0.0928    0.1119
    28 N1     *f1+       0.0000    0.0000   -0.0000    0.0000   -0.0000   -0.2793   -0.0000    0.0000   -0.0000    0.0000
    29 N1     *f2+      -0.0000    0.0417   -0.0000    0.0678    0.0000    0.0000    0.0000   -0.0000   -0.0000   -0.0000
    30 N1     *f3+       0.0000   -0.0000   -0.0000    0.0000   -0.0000    0.0000    0.0000    0.0000   -0.0000    0.0000
    31 N2     1s        -0.0000    0.0000    0.0000   -0.0000   -0.4209   -0.0000    0.0000   -0.3617    1.6068    1.8508
    32 N2     2s        -0.0000    0.0000    0.0000   -0.0000   -0.8610   -0.0000    0.0000   -0.5982    3.5555    4.3628
    33 N2     *s         0.0000   -0.0000   -0.0000    0.0000    0.6138    0.0000   -0.0000    0.6955   -2.2599   -2.3679
    34 N2     *s         0.0000   -0.0000   -0.0000    0.0000    0.5505    0.0000   -0.0000   -0.3813   -2.1648   -3.8908
    35 N2     2px       -0.0000    0.0000   -0.0000    0.0000   -0.0000    0.0108    0.0000   -0.0000   -0.0000   -0.0000
    36 N2     *px        0.0000   -0.0000    0.0000   -0.0000    0.0000   -0.0490   -0.0000    0.0000    0.0000    0.0000
    37 N2     *px        0.0000    0.0000    0.0000   -0.0000    0.0000    0.1478    0.0000    0.0000    0.0000    0.0000
    38 N2     2py       -0.0000    0.0000    0.0000    0.0000    0.0000   -0.0000    0.0108    0.0000    0.0000    0.0000
    39 N2     *py        0.0000   -0.0000   -0.0000   -0.0000    0.0000    0.0000   -0.0490   -0.0000   -0.0000   -0.0000
    40 N2     *py        0.0000   -0.0000   -0.0000   -0.0000   -0.0000   -0.0000    0.1478   -0.0000   -0.0000   -0.0000
    41 N2     2pz        0.0000   -0.0000   -0.0000    0.0000    0.2808    0.0000   -0.0000   -0.6676    0.1546   -0.0377
    42 N2     *pz       -0.0000    0.0000    0.0000   -0.0000   -0.3474   -0.0000    0.0000    0.6581   -0.2458   -0.0367
    43 N2     *pz       -0.0000    0.0000   -0.0000    0.0000    0.0126   -0.0000    0.0000    0.7799    0.0445    1.0291
    44 N2     *d2-       0.8233    0.0000    0.8289    0.0000    0.0000   -0.0000   -0.0000    0.0000    0.0000    0.0000
    45 N2     *d2-      -0.4033   -0.0000   -0.4386   -0.0000   -0.0000    0.0000    0.0000   -0.0000   -0.0000   -0.0000
    46 N2     *d1-      -0.0000    0.0000   -0.0000    0.0000    0.0000   -0.0000    0.8082    0.0000    0.0000    0.0000
    47 N2     *d1-       0.0000   -0.0000    0.0000   -0.0000   -0.0000    0.0000   -0.5670   -0.0000   -0.0000   -0.0000
    48 N2     *d0        0.0000    0.0000   -0.0000    0.0000    0.7944   -0.0000   -0.0000    0.7098    0.2616    0.3200
    49 N2     *d0        0.0000   -0.0000    0.0000   -0.0000   -0.3965    0.0000    0.0000   -0.8566   -0.1986   -0.5543
    50 N2     *d1+      -0.0000   -0.0000   -0.0000   -0.0000    0.0000    0.8082    0.0000   -0.0000    0.0000    0.0000
    51 N2     *d1+       0.0000    0.0000    0.0000    0.0000   -0.0000   -0.5670   -0.0000    0.0000   -0.0000   -0.0000
    52 N2     *d2+      -0.0000    0.8238   -0.0000    0.8283   -0.0000   -0.0000    0.0000   -0.0000   -0.0000   -0.0000
    53 N2     *d2+       0.0000   -0.4036    0.0000   -0.4383    0.0000    0.0000   -0.0000    0.0000    0.0000    0.0000
    54 N2     *f3-       0.0000   -0.0000    0.0000   -0.0000    0.0000    0.0000   -0.0000    0.0000   -0.0000    0.0000
    55 N2     *f2-      -0.0417   -0.0000    0.0678    0.0000    0.0000   -0.0000    0.0000    0.0000    0.0000    0.0000
    56 N2     *f1-       0.0000   -0.0000    0.0000   -0.0000   -0.0000   -0.0000    0.2793   -0.0000   -0.0000   -0.0000
    57 N2     *f0       -0.0000   -0.0000    0.0000    0.0000   -0.0172   -0.0000    0.0000    0.4625    0.0930    0.1118
    58 N2     *f1+       0.0000    0.0000    0.0000    0.0000    0.0000    0.2793    0.0000   -0.0000    0.0000    0.0000
    59 N2     *f2+       0.0000   -0.0416   -0.0000    0.0678   -0.0000   -0.0000    0.0000   -0.0000   -0.0000   -0.0000
    60 N2     *f3+       0.0000    0.0000    0.0000    0.0000   -0.0000    0.0000    0.0000    0.0000    0.0000    0.0000
--

      Von Neumann Entropy (Root   1) =  2.43309


      Mulliken population analysis for root number:  1
      -----------------------------------------------


++    Molecular charges:
      ------------------

      Mulliken charges per centre and basis function type
      ---------------------------------------------------

                N1      N2    
      1s       2.0016  2.0016
      2s       2.0534  2.0535
      2px      0.9148  0.9148
      2pz      0.9740  0.9740
      2py      0.9148  0.9148
      *s      -0.0737 -0.0738
      *px      0.0825  0.0825
      *pz      0.0342  0.0343
      *py      0.0825  0.0825
      *d2+     0.0000  0.0000
      *d1+     0.0035  0.0035
      *d0      0.0085  0.0085
      *d1-     0.0035  0.0035
      *d2-     0.0000  0.0000
      *f3+     0.0000  0.0000
      *f2+     0.0000  0.0000
      *f1+     0.0001  0.0001
      *f0      0.0002  0.0002
      *f1-     0.0001  0.0001
      *f2-     0.0000  0.0000
      *f3-     0.0000  0.0000
      Total    7.0000  7.0000

      N-E      0.0000 -0.0000

      Total electronic charge=   14.000000

      Total            charge=   -0.000000
--



      Expectation values of various properties for root number:  1
      -----------------------------------------------------------

      Properties not supported for DMRGSCF 

++    Molecular properties:
      ---------------------

      Charge (e):
                      =   -0.0000
      Dipole Moment (Debye):
      Origin of the operator (Ang)=    0.0000    0.0000    0.0000
                   X=  4.5693E-09               Y=  3.5579E-09               Z= -6.2678E-05           Total=  6.2678E-05
      Quadrupole Moment (Debye*Ang):
      Origin of the operator (Ang)=    0.0000    0.0000    1.0000
                  XX= -1.1926E+01              XY= -9.5347E-10              XZ=  1.8962E-08              YY= -1.1926E+01
                  YZ= -9.2759E-07              ZZ= -1.1972E+01
      In traceless form (Debye*Ang)
                  XX=  2.2852E-02              XY= -1.4302E-09              XZ=  2.8443E-08              YY=  2.2859E-02
                  YZ= -1.3914E-06              ZZ= -4.5711E-02
--


      Input file to MOLDEN was generated!

      Average orbitals are written to the RASORB file
      Natural orbitals for root   1 are written to the RASORB.1 file
      Spin density orbitals for root   1 are written to the SPDORB.1 file

--- Stop Module: dmrgscf at Tue Apr  9 00:42:41 2024 /rc=_RC_ALL_IS_WELL_ ---
*** files: n2.GssOrb n2.guessorb.h5 n2.rasscf.molden n2.guessorb.molden n2.scf.molden n2.RasOrb n2.RasOrb.1 n2.dmrgscf.h5 n2.ScfOrb n2.scf.h5 n2.SpdOrb.1 xmldump
    saved to directory /public/home/xzzeng/work/HQC/N2/cc-pvtz/NO/PES/entropy/2.0/results/work_dir/n2/dmrg
--- Module dmrgscf spent 5 seconds ---

.##################.
.# Happy landing! #.
.##################.

    Timing: Wall=5.16 User=3.22 System=0.22
