[Molden Format]
[N_Atoms]
                    2
[Atoms] (AU)
N1          1      7           0.00000000      0.00000000      0.00000000
N2          2      7           0.00000000      0.00000000      1.88972612
[5D]
[7F]
[Charge] (Mulliken)
   0.0000000000000000     
   0.0000000000000000     
[GTO] (AU)
   1
   s  10
  1.142000000E+04  5.229996559E-04
  1.712000000E+03  4.044997339E-03
  3.893000000E+02  2.077498633E-02
  1.100000000E+02  8.072694689E-02
  3.557000000E+01  2.330738467E-01
  1.254000000E+01  4.335007148E-01
  4.644000000E+00  3.474717714E-01
  1.293000000E+00  4.126197285E-02
  5.118000000E-01 -8.507994403E-03
  1.787000000E-01  2.383998432E-03
   s  10
  1.142000000E+04 -1.149999544E-04
  1.712000000E+03 -8.949996452E-04
  3.893000000E+02 -4.623998167E-03
  1.100000000E+02 -1.852799265E-02
  3.557000000E+01 -5.733897727E-02
  1.254000000E+01 -1.320759476E-01
  4.644000000E+00 -1.725099316E-01
  1.293000000E+00  1.518139398E-01
  5.118000000E-01  5.999437621E-01
  1.787000000E-01  3.874618464E-01
   s   1
  1.293000000E+00  1.000000000E+00
   s   1
  1.787000000E-01  1.000000000E+00
   p   5
  2.663000000E+01  1.467000345E-02
  5.948000000E+00  9.176402155E-02
  1.742000000E+00  2.986830701E-01
  5.550000000E-01  4.984871171E-01
  1.725000000E-01  3.370230791E-01
   p   1
  5.550000000E-01  1.000000000E+00
   p   1
  1.725000000E-01  1.000000000E+00
   d   1
  1.654000000E+00  1.000000000E+00
   d   1
  4.690000000E-01  1.000000000E+00
   f   1
  1.093000000E+00  1.000000000E+00
 
   2
   s  10
  1.142000000E+04  5.229996559E-04
  1.712000000E+03  4.044997339E-03
  3.893000000E+02  2.077498633E-02
  1.100000000E+02  8.072694689E-02
  3.557000000E+01  2.330738467E-01
  1.254000000E+01  4.335007148E-01
  4.644000000E+00  3.474717714E-01
  1.293000000E+00  4.126197285E-02
  5.118000000E-01 -8.507994403E-03
  1.787000000E-01  2.383998432E-03
   s  10
  1.142000000E+04 -1.149999544E-04
  1.712000000E+03 -8.949996452E-04
  3.893000000E+02 -4.623998167E-03
  1.100000000E+02 -1.852799265E-02
  3.557000000E+01 -5.733897727E-02
  1.254000000E+01 -1.320759476E-01
  4.644000000E+00 -1.725099316E-01
  1.293000000E+00  1.518139398E-01
  5.118000000E-01  5.999437621E-01
  1.787000000E-01  3.874618464E-01
   s   1
  1.293000000E+00  1.000000000E+00
   s   1
  1.787000000E-01  1.000000000E+00
   p   5
  2.663000000E+01  1.467000345E-02
  5.948000000E+00  9.176402155E-02
  1.742000000E+00  2.986830701E-01
  5.550000000E-01  4.984871171E-01
  1.725000000E-01  3.370230791E-01
   p   1
  5.550000000E-01  1.000000000E+00
   p   1
  1.725000000E-01  1.000000000E+00
   d   1
  1.654000000E+00  1.000000000E+00
   d   1
  4.690000000E-01  1.000000000E+00
   f   1
  1.093000000E+00  1.000000000E+00
 
[MO]
Sym=     1a  
Ene=   -15.6740
Spin= Alpha
Occup=    2.00000
   1         0.70635621
   2         0.00705287
   3        -0.00161330
   4         0.00196238
   5         0.00000000
   6        -0.00000000
   7         0.00354634
   8        -0.00000000
   9         0.00000000
  10        -0.00006193
  11        -0.00000000
  12         0.00000000
  13        -0.00016507
  14         0.00000000
  15        -0.00000000
  16         0.00000000
  17        -0.00000000
  18        -0.00000000
  19        -0.00000000
  20        -0.00000000
  21         0.00000000
  22         0.00000000
  23         0.00000000
  24         0.00000000
  25         0.00000000
  26         0.00000000
  27        -0.00000000
  28         0.00000000
  29         0.00000000
  30         0.00000000
  31         0.70635621
  32         0.00705287
  33        -0.00161330
  34         0.00196238
  35         0.00000000
  36         0.00000000
  37        -0.00354634
  38         0.00000000
  39        -0.00000000
  40         0.00006193
  41        -0.00000000
  42        -0.00000000
  43         0.00016507
  44         0.00000000
  45        -0.00000000
  46         0.00000000
  47        -0.00000000
  48         0.00000000
  49         0.00000000
  50        -0.00000000
  51         0.00000000
  52         0.00000000
  53        -0.00000000
  54         0.00000000
  55        -0.00000000
  56        -0.00000000
  57        -0.00000000
  58         0.00000000
  59        -0.00000000
  60        -0.00000000
Sym=     2a  
Ene=   -15.6230
Spin= Alpha
Occup=    2.00000
   1        -0.70764249
   2        -0.00020361
   3         0.00168501
   4        -0.00192609
   5         0.00000000
   6         0.00000000
   7         0.00338050
   8        -0.00000000
   9        -0.00000000
  10        -0.00005903
  11        -0.00000000
  12        -0.00000000
  13        -0.00015735
  14        -0.00000000
  15        -0.00000000
  16         0.00000000
  17         0.00000000
  18         0.00000000
  19         0.00000000
  20        -0.00000000
  21        -0.00000000
  22        -0.00000000
  23        -0.00000000
  24         0.00000000
  25        -0.00000000
  26        -0.00000000
  27         0.00000000
  28        -0.00000000
  29         0.00000000
  30         0.00000000
  31         0.70764249
  32         0.00020361
  33        -0.00168501
  34         0.00192609
  35        -0.00000000
  36        -0.00000000
  37         0.00338050
  38         0.00000000
  39         0.00000000
  40        -0.00005903
  41         0.00000000
  42         0.00000000
  43        -0.00015735
  44        -0.00000000
  45        -0.00000000
  46        -0.00000000
  47        -0.00000000
  48         0.00000000
  49        -0.00000000
  50        -0.00000000
  51        -0.00000000
  52         0.00000000
  53         0.00000000
  54         0.00000000
  55         0.00000000
  56         0.00000000
  57         0.00000000
  58        -0.00000000
  59        -0.00000000
  60        -0.00000000
Sym=     3a  
Ene=    -1.5602
Spin= Alpha
Occup=    2.00000
   1        -0.07061623
   2         0.50679806
   3         0.00524755
   4         0.00275175
   5         0.00000000
   6         0.00000000
   7         0.16242380
   8        -0.00000000
   9        -0.00000000
  10        -0.00283631
  11        -0.00000000
  12        -0.00000000
  13        -0.00756039
  14        -0.00000000
  15         0.00000000
  16        -0.00000000
  17         0.00000000
  18        -0.00000000
  19        -0.00000000
  20        -0.00000000
  21        -0.00000000
  22        -0.00000000
  23         0.00000000
  24        -0.00000000
  25        -0.00000000
  26        -0.00000000
  27        -0.00000000
  28         0.00000000
  29         0.00000000
  30        -0.00000000
  31        -0.07061623
  32         0.50679806
  33         0.00524755
  34         0.00275175
  35         0.00000000
  36        -0.00000000
  37        -0.16242380
  38        -0.00000000
  39         0.00000000
  40         0.00283631
  41         0.00000000
  42         0.00000000
  43         0.00756039
  44         0.00000000
  45         0.00000000
  46        -0.00000000
  47         0.00000000
  48         0.00000000
  49         0.00000000
  50        -0.00000000
  51        -0.00000000
  52         0.00000000
  53        -0.00000000
  54        -0.00000000
  55         0.00000000
  56         0.00000000
  57        -0.00000000
  58         0.00000000
  59         0.00000000
  60         0.00000000
Sym=     4a  
Ene=    -0.8086
Spin= Alpha
Occup=    2.00000
   1         0.01746836
   2        -0.53470183
   3        -0.00540049
   4        -0.00305841
   5        -0.00000000
   6         0.00000000
   7         0.44216409
   8        -0.00000000
   9        -0.00000000
  10        -0.00772125
  11        -0.00000000
  12         0.00000000
  13        -0.02058156
  14         0.00000000
  15        -0.00000000
  16        -0.00000000
  17        -0.00000000
  18         0.00000000
  19         0.00000000
  20        -0.00000000
  21        -0.00000000
  22         0.00000000
  23        -0.00000000
  24         0.00000000
  25        -0.00000000
  26        -0.00000000
  27         0.00000000
  28         0.00000000
  29        -0.00000000
  30        -0.00000000
  31        -0.01746836
  32         0.53470183
  33         0.00540049
  34         0.00305841
  35        -0.00000000
  36         0.00000000
  37         0.44216409
  38         0.00000000
  39         0.00000000
  40        -0.00772125
  41         0.00000000
  42        -0.00000000
  43        -0.02058156
  44        -0.00000000
  45        -0.00000000
  46         0.00000000
  47         0.00000000
  48        -0.00000000
  49        -0.00000000
  50        -0.00000000
  51        -0.00000000
  52        -0.00000000
  53         0.00000000
  54         0.00000000
  55         0.00000000
  56         0.00000000
  57         0.00000000
  58         0.00000000
  59         0.00000000
  60         0.00000000
Sym=     5a  
Ene=    -0.7873
Spin= Alpha
Occup=    2.00000
   1        -0.00000000
   2        -0.00000000
   3         0.00000000
   4         0.00000000
   5         0.02811499
   6         0.63369712
   7        -0.00000000
   8        -0.00049096
   9        -0.01106588
  10        -0.00000000
  11        -0.00130868
  12        -0.02949691
  13         0.00000000
  14        -0.00000000
  15         0.00000000
  16         0.00000000
  17         0.00000000
  18        -0.00000000
  19         0.00000000
  20        -0.00000000
  21         0.00000000
  22         0.00000000
  23        -0.00000000
  24        -0.00000000
  25         0.00000000
  26         0.00000000
  27         0.00000000
  28        -0.00000000
  29         0.00000000
  30        -0.00000000
  31         0.00000000
  32         0.00000000
  33        -0.00000000
  34        -0.00000000
  35         0.02811499
  36         0.63369712
  37        -0.00000000
  38        -0.00049096
  39        -0.01106588
  40        -0.00000000
  41        -0.00130868
  42        -0.02949691
  43         0.00000000
  44         0.00000000
  45        -0.00000000
  46        -0.00000000
  47         0.00000000
  48        -0.00000000
  49        -0.00000000
  50         0.00000000
  51         0.00000000
  52        -0.00000000
  53         0.00000000
  54        -0.00000000
  55        -0.00000000
  56        -0.00000000
  57         0.00000000
  58        -0.00000000
  59        -0.00000000
  60         0.00000000
Sym=     6a  
Ene=    -0.7873
Spin= Alpha
Occup=    2.00000
   1         0.00000000
   2         0.00000000
   3        -0.00000000
   4        -0.00000000
   5         0.63369712
   6        -0.02811499
   7         0.00000000
   8        -0.01106588
   9         0.00049096
  10         0.00000000
  11        -0.02949691
  12         0.00130868
  13        -0.00000000
  14         0.00000000
  15        -0.00000000
  16         0.00000000
  17        -0.00000000
  18         0.00000000
  19         0.00000000
  20        -0.00000000
  21         0.00000000
  22         0.00000000
  23        -0.00000000
  24         0.00000000
  25        -0.00000000
  26         0.00000000
  27         0.00000000
  28        -0.00000000
  29         0.00000000
  30         0.00000000
  31        -0.00000000
  32        -0.00000000
  33         0.00000000
  34         0.00000000
  35         0.63369712
  36        -0.02811499
  37         0.00000000
  38        -0.01106588
  39         0.00049096
  40         0.00000000
  41        -0.02949691
  42         0.00130868
  43        -0.00000000
  44        -0.00000000
  45         0.00000000
  46         0.00000000
  47         0.00000000
  48         0.00000000
  49        -0.00000000
  50        -0.00000000
  51         0.00000000
  52        -0.00000000
  53         0.00000000
  54         0.00000000
  55         0.00000000
  56        -0.00000000
  57         0.00000000
  58        -0.00000000
  59         0.00000000
  60        -0.00000000
Sym=     7a  
Ene=    -0.5403
Spin= Alpha
Occup=    2.00000
   1         0.05539453
   2         0.33395642
   3         0.00321489
   4         0.00209054
   5        -0.00000000
   6         0.00000000
   7        -0.71397373
   8         0.00000000
   9        -0.00000000
  10         0.01246770
  11         0.00000000
  12        -0.00000000
  13         0.03323357
  14         0.00000000
  15         0.00000000
  16        -0.00000000
  17         0.00000000
  18         0.00000000
  19         0.00000000
  20        -0.00000000
  21        -0.00000000
  22        -0.00000000
  23        -0.00000000
  24         0.00000000
  25        -0.00000000
  26        -0.00000000
  27        -0.00000000
  28         0.00000000
  29         0.00000000
  30        -0.00000000
  31         0.05539453
  32         0.33395642
  33         0.00321489
  34         0.00209054
  35        -0.00000000
  36        -0.00000000
  37         0.71397373
  38         0.00000000
  39         0.00000000
  40        -0.01246770
  41         0.00000000
  42         0.00000000
  43        -0.03323357
  44        -0.00000000
  45        -0.00000000
  46         0.00000000
  47        -0.00000000
  48         0.00000000
  49        -0.00000000
  50        -0.00000000
  51        -0.00000000
  52         0.00000000
  53        -0.00000000
  54         0.00000000
  55         0.00000000
  56         0.00000000
  57        -0.00000000
  58        -0.00000000
  59         0.00000000
  60         0.00000000
Sym=     8a  
Ene=    -0.3539
Spin= Alpha
Occup=    0.00000
   1         0.00000000
   2         0.00000000
   3        -0.00000000
   4        -0.00000000
   5        -0.86147555
   6         0.39100884
   7        -0.00000000
   8         0.01504344
   9        -0.00682796
  10        -0.00000000
  11         0.04009939
  12        -0.01820042
  13        -0.00000000
  14        -0.00000000
  15        -0.00000000
  16         0.00000000
  17        -0.00000000
  18        -0.00000000
  19         0.00000000
  20        -0.00000000
  21         0.00000000
  22         0.00000000
  23         0.00000000
  24         0.00000000
  25        -0.00000000
  26         0.00000000
  27        -0.00000000
  28         0.00000000
  29         0.00000000
  30        -0.00000000
  31        -0.00000000
  32        -0.00000000
  33         0.00000000
  34         0.00000000
  35         0.86147555
  36        -0.39100884
  37         0.00000000
  38        -0.01504344
  39         0.00682796
  40        -0.00000000
  41        -0.04009939
  42         0.01820042
  43        -0.00000000
  44        -0.00000000
  45        -0.00000000
  46         0.00000000
  47         0.00000000
  48         0.00000000
  49         0.00000000
  50        -0.00000000
  51         0.00000000
  52        -0.00000000
  53        -0.00000000
  54        -0.00000000
  55         0.00000000
  56        -0.00000000
  57         0.00000000
  58         0.00000000
  59         0.00000000
  60        -0.00000000
Sym=     9a  
Ene=    -0.3539
Spin= Alpha
Occup=    0.00000
   1         0.00000000
   2         0.00000000
   3        -0.00000000
   4         0.00000000
   5        -0.39100884
   6        -0.86147555
   7         0.00000000
   8         0.00682796
   9         0.01504344
  10         0.00000000
  11         0.01820042
  12         0.04009939
  13         0.00000000
  14         0.00000000
  15        -0.00000000
  16        -0.00000000
  17        -0.00000000
  18         0.00000000
  19         0.00000000
  20        -0.00000000
  21        -0.00000000
  22        -0.00000000
  23        -0.00000000
  24         0.00000000
  25        -0.00000000
  26        -0.00000000
  27        -0.00000000
  28        -0.00000000
  29        -0.00000000
  30         0.00000000
  31        -0.00000000
  32        -0.00000000
  33         0.00000000
  34        -0.00000000
  35         0.39100884
  36         0.86147555
  37        -0.00000000
  38        -0.00682796
  39        -0.01504344
  40         0.00000000
  41        -0.01820042
  42        -0.04009939
  43         0.00000000
  44        -0.00000000
  45        -0.00000000
  46        -0.00000000
  47         0.00000000
  48        -0.00000000
  49        -0.00000000
  50        -0.00000000
  51        -0.00000000
  52         0.00000000
  53         0.00000000
  54         0.00000000
  55         0.00000000
  56         0.00000000
  57         0.00000000
  58        -0.00000000
  59        -0.00000000
  60         0.00000000
Sym=    10a  
Ene=    -0.0932
Spin= Alpha
Occup=    0.00000
   1         0.25609083
   2         1.57281208
   3         0.01515239
   4         0.00983262
   5        -0.00000000
   6        -0.00000000
   7         1.30401597
   8         0.00000000
   9         0.00000000
  10        -0.02277126
  11         0.00000000
  12         0.00000000
  13        -0.06069847
  14        -0.00000000
  15         0.00000000
  16         0.00000000
  17        -0.00000000
  18         0.00000000
  19        -0.00000000
  20         0.00000000
  21         0.00000000
  22        -0.00000000
  23         0.00000000
  24        -0.00000000
  25         0.00000000
  26         0.00000000
  27        -0.00000000
  28         0.00000000
  29         0.00000000
  30        -0.00000000
  31        -0.25609083
  32        -1.57281208
  33        -0.01515239
  34        -0.00983262
  35         0.00000000
  36         0.00000000
  37         1.30401597
  38        -0.00000000
  39        -0.00000000
  40        -0.02277126
  41        -0.00000000
  42        -0.00000000
  43        -0.06069847
  44         0.00000000
  45         0.00000000
  46         0.00000000
  47        -0.00000000
  48         0.00000000
  49         0.00000000
  50         0.00000000
  51         0.00000000
  52         0.00000000
  53        -0.00000000
  54        -0.00000000
  55        -0.00000000
  56        -0.00000000
  57        -0.00000000
  58        -0.00000000
  59        -0.00000000
  60        -0.00000000
Sym=    11a  
Ene=     3.7232
Spin= Alpha
Occup=    0.00000
   1        -0.03237018
   2        -0.10191761
   3        -0.01310598
   4       -13.20087154
   5        -0.00000000
   6         0.00000000
   7         0.12458858
   8        -0.00000000
   9         0.00000000
  10        -0.63863170
  11         0.00000000
  12        -0.00000000
  13        -5.87654211
  14        -0.00269640
  15        -0.00000000
  16         0.00000000
  17        -0.00000000
  18        -0.00000000
  19        -0.70663283
  20         0.00000000
  21        -0.00000000
  22         0.00000000
  23         0.00000000
  24        -0.04963186
  25        -0.00000000
  26        -0.00000000
  27         0.00000000
  28         0.00000000
  29        -0.00000000
  30        -0.00000000
  31         0.03237018
  32         0.10191761
  33         0.01310598
  34        13.20087154
  35         0.00000000
  36         0.00000000
  37         0.12458858
  38         0.00000000
  39        -0.00000000
  40        -0.63863170
  41        -0.00000000
  42         0.00000000
  43        -5.87654211
  44         0.00269640
  45        -0.00000000
  46         0.00000000
  47         0.00000000
  48         0.00000000
  49         0.70663283
  50         0.00000000
  51        -0.00000000
  52        -0.00000000
  53        -0.00000000
  54        -0.04963186
  55        -0.00000000
  56         0.00000000
  57         0.00000000
  58        -0.00000000
  59         0.00000000
  60        -0.00000000
Sym=    12a  
Ene=     3.8535
Spin= Alpha
Occup=    0.00000
   1         0.07323791
   2         0.25959562
   3         0.13369211
   4         0.17590781
   5         0.00000000
   6        -0.00000000
   7         0.01154844
   8         0.00000000
   9        -0.00000000
  10         0.56531102
  11        -0.00000000
  12         0.00000000
  13        -1.54767274
  14         0.03652799
  15         0.00000000
  16        -0.00000000
  17        -0.00000000
  18        -0.00000000
  19        -0.38060974
  20        -0.00000000
  21         0.00000000
  22         0.00000000
  23         0.00000000
  24        -0.05845102
  25        -0.00000000
  26         0.00000000
  27        -0.00000000
  28        -0.00000000
  29        -0.00000000
  30         0.00000000
  31         0.07323791
  32         0.25959562
  33         0.13369211
  34         0.17590781
  35         0.00000000
  36         0.00000000
  37        -0.01154844
  38        -0.00000000
  39         0.00000000
  40        -0.56531102
  41         0.00000000
  42        -0.00000000
  43         1.54767274
  44         0.03652799
  45         0.00000000
  46        -0.00000000
  47         0.00000000
  48        -0.00000000
  49        -0.38060974
  50        -0.00000000
  51         0.00000000
  52        -0.00000000
  53        -0.00000000
  54         0.05845102
  55         0.00000000
  56        -0.00000000
  57         0.00000000
  58         0.00000000
  59         0.00000000
  60         0.00000000
Sym=    13a  
Ene=     3.9059
Spin= Alpha
Occup=    0.00000
   1         0.00000000
   2         0.00000000
   3        -0.00000000
   4         0.00000000
   5        -0.00562022
   6        -0.00686996
   7        -0.00000000
   8         0.23506552
   9         0.28733568
  10        -0.00000000
  11        -1.26927284
  12        -1.55151374
  13         0.00000000
  14        -0.00000000
  15         0.01224970
  16         0.01497360
  17         0.00000000
  18        -0.00000000
  19         0.00000000
  20        -0.33708436
  21        -0.41203987
  22         0.00000000
  23         0.00000000
  24         0.00000000
  25        -0.04266658
  26        -0.05215410
  27        -0.00000000
  28         0.00000000
  29        -0.00000000
  30        -0.00000000
  31        -0.00000000
  32        -0.00000000
  33         0.00000000
  34        -0.00000000
  35         0.00562022
  36         0.00686996
  37        -0.00000000
  38        -0.23506552
  39        -0.28733568
  40         0.00000000
  41         1.26927284
  42         1.55151374
  43         0.00000000
  44         0.00000000
  45         0.01224970
  46         0.01497360
  47        -0.00000000
  48         0.00000000
  49        -0.00000000
  50        -0.33708436
  51        -0.41203987
  52         0.00000000
  53        -0.00000000
  54         0.00000000
  55         0.04266658
  56         0.05215410
  57        -0.00000000
  58         0.00000000
  59         0.00000000
  60        -0.00000000
Sym=    14a  
Ene=     3.9059
Spin= Alpha
Occup=    0.00000
   1         0.00000000
   2        -0.00000000
   3         0.00000000
   4         0.00000000
   5         0.00686996
   6        -0.00562022
   7        -0.00000000
   8        -0.28733568
   9         0.23506552
  10         0.00000000
  11         1.55151374
  12        -1.26927284
  13         0.00000000
  14        -0.00000000
  15        -0.01497360
  16         0.01224970
  17         0.00000000
  18        -0.00000000
  19         0.00000000
  20         0.41203987
  21        -0.33708436
  22        -0.00000000
  23         0.00000000
  24         0.00000000
  25         0.05215410
  26        -0.04266658
  27         0.00000000
  28         0.00000000
  29         0.00000000
  30        -0.00000000
  31        -0.00000000
  32         0.00000000
  33         0.00000000
  34        -0.00000000
  35        -0.00686996
  36         0.00562022
  37        -0.00000000
  38         0.28733568
  39        -0.23506552
  40        -0.00000000
  41        -1.55151374
  42         1.26927284
  43         0.00000000
  44         0.00000000
  45        -0.01497360
  46         0.01224970
  47         0.00000000
  48         0.00000000
  49        -0.00000000
  50         0.41203987
  51        -0.33708436
  52        -0.00000000
  53        -0.00000000
  54         0.00000000
  55        -0.05215410
  56         0.04266658
  57         0.00000000
  58         0.00000000
  59        -0.00000000
  60         0.00000000
Sym=    15a  
Ene=     4.0134
Spin= Alpha
Occup=    0.00000
   1         0.00000000
   2         0.00000000
   3        -0.00000000
   4         0.00000000
   5         0.05734577
   6         0.09315016
   7        -0.00000000
   8        -0.40181453
   9        -0.65269131
  10         0.00000000
  11         0.37506301
  12         0.60923722
  13         0.00000000
  14         0.00000000
  15         0.00470175
  16         0.00763733
  17        -0.00000000
  18        -0.00000000
  19         0.00000000
  20        -0.02058155
  21        -0.03343184
  22         0.00000000
  23         0.00000000
  24         0.00000000
  25         0.01256178
  26         0.02040484
  27        -0.00000000
  28         0.00000000
  29         0.00000000
  30        -0.00000000
  31         0.00000000
  32         0.00000000
  33         0.00000000
  34        -0.00000000
  35         0.05734577
  36         0.09315016
  37        -0.00000000
  38        -0.40181453
  39        -0.65269131
  40         0.00000000
  41         0.37506301
  42         0.60923722
  43         0.00000000
  44         0.00000000
  45        -0.00470175
  46        -0.00763733
  47        -0.00000000
  48        -0.00000000
  49        -0.00000000
  50         0.02058155
  51         0.03343184
  52         0.00000000
  53         0.00000000
  54         0.00000000
  55         0.01256178
  56         0.02040484
  57        -0.00000000
  58         0.00000000
  59         0.00000000
  60        -0.00000000
Sym=    16a  
Ene=     4.0134
Spin= Alpha
Occup=    0.00000
   1        -0.00000000
   2        -0.00000000
   3         0.00000000
   4        -0.00000000
   5         0.09315016
   6        -0.05734577
   7         0.00000000
   8        -0.65269131
   9         0.40181453
  10         0.00000000
  11         0.60923722
  12        -0.37506301
  13        -0.00000000
  14         0.00000000
  15         0.00763733
  16        -0.00470175
  17         0.00000000
  18        -0.00000000
  19        -0.00000000
  20        -0.03343184
  21         0.02058155
  22         0.00000000
  23         0.00000000
  24         0.00000000
  25         0.02040484
  26        -0.01256178
  27        -0.00000000
  28        -0.00000000
  29        -0.00000000
  30        -0.00000000
  31         0.00000000
  32         0.00000000
  33        -0.00000000
  34         0.00000000
  35         0.09315016
  36        -0.05734577
  37        -0.00000000
  38        -0.65269131
  39         0.40181453
  40         0.00000000
  41         0.60923722
  42        -0.37506301
  43        -0.00000000
  44        -0.00000000
  45        -0.00763733
  46         0.00470175
  47        -0.00000000
  48        -0.00000000
  49         0.00000000
  50         0.03343184
  51        -0.02058155
  52         0.00000000
  53        -0.00000000
  54         0.00000000
  55         0.02040484
  56        -0.01256178
  57        -0.00000000
  58        -0.00000000
  59        -0.00000000
  60         0.00000000
Sym=    17a  
Ene=     4.3740
Spin= Alpha
Occup=    0.00000
   1         0.08255328
   2         0.34462203
   3        -0.27921918
   4       -11.33521323
   5         0.00000000
   6        -0.00000000
   7         0.17809185
   8        -0.00000000
   9         0.00000000
  10        -2.17729879
  11         0.00000000
  12         0.00000000
  13        -3.67619200
  14        -0.09157261
  15        -0.00000000
  16        -0.00000000
  17        -0.00000000
  18         0.00000000
  19        -0.63270904
  20         0.00000000
  21         0.00000000
  22         0.00000000
  23         0.00000000
  24        -0.09855718
  25         0.00000000
  26         0.00000000
  27         0.00000000
  28         0.00000000
  29        -0.00000000
  30        -0.00000000
  31        -0.08255328
  32        -0.34462203
  33         0.27921918
  34        11.33521323
  35         0.00000000
  36        -0.00000000
  37         0.17809185
  38        -0.00000000
  39         0.00000000
  40        -2.17729879
  41        -0.00000000
  42        -0.00000000
  43        -3.67619200
  44         0.09157261
  45        -0.00000000
  46        -0.00000000
  47         0.00000000
  48         0.00000000
  49         0.63270904
  50         0.00000000
  51         0.00000000
  52        -0.00000000
  53        -0.00000000
  54        -0.09855718
  55        -0.00000000
  56        -0.00000000
  57         0.00000000
  58        -0.00000000
  59         0.00000000
  60        -0.00000000
Sym=    18a  
Ene=     4.3963
Spin= Alpha
Occup=    0.00000
   1         0.57147256
   2         2.10488908
   3        -0.47710502
   4        -1.79316227
   5        -0.00000000
   6         0.00000000
   7         0.02141690
   8         0.00000000
   9         0.00000000
  10        -0.05723288
  11         0.00000000
  12         0.00000000
  13        -0.20802765
  14        -0.02985518
  15         0.00000000
  16         0.00000000
  17         0.00000000
  18        -0.00000000
  19         0.15099400
  20         0.00000000
  21         0.00000000
  22        -0.00000000
  23         0.00000000
  24        -0.03497941
  25        -0.00000000
  26         0.00000000
  27         0.00000000
  28        -0.00000000
  29         0.00000000
  30        -0.00000000
  31         0.57147256
  32         2.10488908
  33        -0.47710502
  34        -1.79316227
  35         0.00000000
  36        -0.00000000
  37        -0.02141690
  38        -0.00000000
  39         0.00000000
  40         0.05723288
  41        -0.00000000
  42        -0.00000000
  43         0.20802765
  44        -0.02985518
  45         0.00000000
  46         0.00000000
  47         0.00000000
  48        -0.00000000
  49         0.15099400
  50         0.00000000
  51         0.00000000
  52        -0.00000000
  53         0.00000000
  54         0.03497941
  55         0.00000000
  56        -0.00000000
  57        -0.00000000
  58         0.00000000
  59         0.00000000
  60        -0.00000000
Sym=    19a  
Ene=     4.4627
Spin= Alpha
Occup=    0.00000
   1         0.00000000
   2         0.00000000
   3        -0.00000000
   4         0.00000000
   5         0.00000000
   6         0.00000000
   7        -0.00000000
   8         0.00000000