[Molden Format]
[N_Atoms]
                    2
[Atoms] (AU)
N1          1      7           0.00000000      0.00000000      0.00000000
N2          2      7           0.00000000      0.00000000      1.88972612
[5D]
[7F]
[Charge] (Mulliken)
   1.4002572749483022E-004
  -1.4002572759785892E-004
[GTO] (AU)
   1
   s  10
  1.142000000E+04  5.229996559E-04
  1.712000000E+03  4.044997339E-03
  3.893000000E+02  2.077498633E-02
  1.100000000E+02  8.072694689E-02
  3.557000000E+01  2.330738467E-01
  1.254000000E+01  4.335007148E-01
  4.644000000E+00  3.474717714E-01
  1.293000000E+00  4.126197285E-02
  5.118000000E-01 -8.507994403E-03
  1.787000000E-01  2.383998432E-03
   s  10
  1.142000000E+04 -1.149999544E-04
  1.712000000E+03 -8.949996452E-04
  3.893000000E+02 -4.623998167E-03
  1.100000000E+02 -1.852799265E-02
  3.557000000E+01 -5.733897727E-02
  1.254000000E+01 -1.320759476E-01
  4.644000000E+00 -1.725099316E-01
  1.293000000E+00  1.518139398E-01
  5.118000000E-01  5.999437621E-01
  1.787000000E-01  3.874618464E-01
   s   1
  1.293000000E+00  1.000000000E+00
   s   1
  1.787000000E-01  1.000000000E+00
   p   5
  2.663000000E+01  1.467000345E-02
  5.948000000E+00  9.176402155E-02
  1.742000000E+00  2.986830701E-01
  5.550000000E-01  4.984871171E-01
  1.725000000E-01  3.370230791E-01
   p   1
  5.550000000E-01  1.000000000E+00
   p   1
  1.725000000E-01  1.000000000E+00
   d   1
  1.654000000E+00  1.000000000E+00
   d   1
  4.690000000E-01  1.000000000E+00
   f   1
  1.093000000E+00  1.000000000E+00
 
   2
   s  10
  1.142000000E+04  5.229996559E-04
  1.712000000E+03  4.044997339E-03
  3.893000000E+02  2.077498633E-02
  1.100000000E+02  8.072694689E-02
  3.557000000E+01  2.330738467E-01
  1.254000000E+01  4.335007148E-01
  4.644000000E+00  3.474717714E-01
  1.293000000E+00  4.126197285E-02
  5.118000000E-01 -8.507994403E-03
  1.787000000E-01  2.383998432E-03
   s  10
  1.142000000E+04 -1.149999544E-04
  1.712000000E+03 -8.949996452E-04
  3.893000000E+02 -4.623998167E-03
  1.100000000E+02 -1.852799265E-02
  3.557000000E+01 -5.733897727E-02
  1.254000000E+01 -1.320759476E-01
  4.644000000E+00 -1.725099316E-01
  1.293000000E+00  1.518139398E-01
  5.118000000E-01  5.999437621E-01
  1.787000000E-01  3.874618464E-01
   s   1
  1.293000000E+00  1.000000000E+00
   s   1
  1.787000000E-01  1.000000000E+00
   p   5
  2.663000000E+01  1.467000345E-02
  5.948000000E+00  9.176402155E-02
  1.742000000E+00  2.986830701E-01
  5.550000000E-01  4.984871171E-01
  1.725000000E-01  3.370230791E-01
   p   1
  5.550000000E-01  1.000000000E+00
   p   1
  1.725000000E-01  1.000000000E+00
   d   1
  1.654000000E+00  1.000000000E+00
   d   1
  4.690000000E-01  1.000000000E+00
   f   1
  1.093000000E+00  1.000000000E+00
 
[MO]
Sym=     1a  
Ene=   -15.6460
Spin= Alpha
Occup=    2.00000
   1         0.70489954
   2         0.00130319
   3         0.00136330
   4        -0.00107559
   5        -0.00000000
   6         0.00000000
   7         0.00577158
   8         0.00000000
   9        -0.00000000
  10        -0.00327452
  11         0.00000000
  12        -0.00000000
  13        -0.00202906
  14         0.00066527
  15         0.00000000
  16        -0.00000000
  17         0.00000001
  18        -0.00000000
  19        -0.00062085
  20         0.00000000
  21        -0.00000000
  22        -0.00000001
  23         0.00000000
  24        -0.00013767
  25         0.00000000
  26        -0.00000000
  27        -0.00000001
  28         0.00000000
  29        -0.00000000
  30        -0.00000000
  31         0.70806797
  32         0.00150862
  33         0.00132357
  34        -0.00100042
  35        -0.00000000
  36         0.00000000
  37        -0.00578330
  38        -0.00000000
  39        -0.00000000
  40         0.00317376
  41         0.00000000
  42        -0.00000000
  43         0.00197492
  44         0.00067959
  45         0.00000000
  46        -0.00000000
  47         0.00000000
  48        -0.00000000
  49        -0.00057978
  50         0.00000000
  51        -0.00000000
  52         0.00000001
  53        -0.00000000
  54         0.00012650
  55        -0.00000000
  56         0.00000000
  57        -0.00000001
  58         0.00000000
  59        -0.00000000
  60        -0.00000000
Sym=     2a  
Ene=   -15.6390
Spin= Alpha
Occup=    2.00000
   1        -0.70852106
   2        -0.00032860
   3        -0.00103238
   4        -0.00663178
   5         0.00000000
   6        -0.00000000
   7        -0.00414745
   8        -0.00000000
   9         0.00000000
  10         0.00140181
  11        -0.00000000
  12         0.00000000
  13        -0.00119487
  14        -0.00096201
  15        -0.00000000
  16         0.00000000
  17        -0.00000000
  18         0.00000000
  19        -0.00063067
  20         0.00000000
  21         0.00000000
  22        -0.00000001
  23        -0.00000000
  24        -0.00049307
  25        -0.00000000
  26         0.00000000
  27        -0.00000001
  28        -0.00000000
  29         0.00000000
  30         0.00000000
  31         0.70543342
  32         0.00035361
  33         0.00101422
  34         0.00661581
  35        -0.00000000
  36         0.00000000
  37        -0.00412493
  38        -0.00000000
  39        -0.00000000
  40         0.00139038
  41        -0.00000000
  42        -0.00000000
  43        -0.00119700
  44         0.00096001
  45         0.00000000
  46        -0.00000000
  47        -0.00000000
  48         0.00000000
  49         0.00062726
  50         0.00000000
  51         0.00000000
  52         0.00000001
  53         0.00000000
  54        -0.00049288
  55        -0.00000000
  56         0.00000000
  57        -0.00000002
  58        -0.00000000
  59        -0.00000000
  60        -0.00000000
Sym=     3a  
Ene=    -1.5415
Spin= Alpha
Occup=    2.00000
   1        -0.03600073
   2         0.60114750
   3        -0.00277251
   4        -0.15462746
   5         0.00000000
   6        -0.00000000
   7         0.40017367
   8        -0.00000000
   9        -0.00000000
  10        -0.06504252
  11        -0.00000000
  12        -0.00000000
  13        -0.12196806
  14         0.02334626
  15         0.00000000
  16         0.00000000
  17         0.00000001
  18         0.00000000
  19         0.01774499
  20         0.00000000
  21         0.00000000
  22        -0.00000009
  23         0.00000000
  24         0.00771900
  25        -0.00000000
  26         0.00000000
  27        -0.00000001
  28         0.00000000
  29        -0.00000000
  30         0.00000000
  31        -0.03597983
  32         0.60121694
  33        -0.00278654
  34        -0.15459996
  35        -0.00000000
  36         0.00000000
  37        -0.40015374
  38        -0.00000000
  39         0.00000000
  40         0.06499996
  41         0.00000000
  42        -0.00000000
  43         0.12194203
  44         0.02334793
  45         0.00000000
  46        -0.00000000
  47        -0.00000004
  48        -0.00000000
  49         0.01775857
  50         0.00000000
  51        -0.00000000
  52         0.00000006
  53        -0.00000000
  54        -0.00772097
  55         0.00000000
  56        -0.00000000
  57        -0.00000002
  58        -0.00000000
  59         0.00000000
  60         0.00000000
Sym=     4a  
Ene=    -0.7445
Spin= Alpha
Occup=    2.00000
   1        -0.00266612
   2        -0.63112274
   3         0.00176356
   4        -0.06086580
   5         0.00000000
   6        -0.00000000
   7         0.34324746
   8        -0.00000000
   9         0.00000000
  10        -0.00714690
  11        -0.00000000
  12         0.00000000
  13        -0.02721657
  14         0.00368063
  15         0.00000000
  16        -0.00000000
  17        -0.00000003
  18        -0.00000000
  19         0.00908250
  20         0.00000000
  21        -0.00000000
  22         0.00000025
  23         0.00000000
  24         0.00006167
  25         0.00000000
  26        -0.00000000
  27         0.00000005
  28         0.00000000
  29         0.00000000
  30        -0.00000000
  31         0.00267067
  32         0.63113352
  33        -0.00176770
  34         0.06086354
  35         0.00000000
  36        -0.00000000
  37         0.34325664
  38        -0.00000000
  39         0.00000000
  40        -0.00713980
  41        -0.00000000
  42         0.00000000
  43        -0.02721461
  44        -0.00368194
  45        -0.00000000
  46         0.00000000
  47        -0.00000001
  48        -0.00000000
  49        -0.00908339
  50        -0.00000000
  51         0.00000000
  52        -0.00000019
  53        -0.00000000
  54         0.00006209
  55         0.00000000
  56        -0.00000000
  57         0.00000006
  58         0.00000000
  59         0.00000000
  60         0.00000000
Sym=     5a  
Ene=    -0.6580
Spin= Alpha
Occup=    2.00000
   1        -0.00000000
   2         0.00000000
   3         0.00000000
   4         0.00000000
   5         0.64492824
   6         0.00000000
   7        -0.00000000
   8        -0.01722213
   9        -0.00000000
  10        -0.00000000
  11        -0.05866329
  12        -0.00000000
  13        -0.00000000
  14         0.00000000
  15         0.02413825
  16         0.00000000
  17        -0.00000000
  18         0.00000000
  19        -0.00000000
  20         0.03753287
  21         0.00000000
  22         0.00000000
  23        -0.00000000
  24         0.00000000
  25         0.00884421
  26         0.00000000
  27        -0.00000000
  28         0.00000000
  29         0.00000013
  30        -0.00000000
  31         0.00000000
  32        -0.00000000
  33        -0.00000000
  34        -0.00000000
  35         0.64491848
  36         0.00000000
  37        -0.00000000
  38        -0.01721585
  39        -0.00000000
  40         0.00000000
  41        -0.05866029
  42        -0.00000000
  43         0.00000000
  44         0.00000000
  45        -0.02413852
  46        -0.00000000
  47        -0.00000000
  48         0.00000000
  49         0.00000000
  50        -0.03753286
  51        -0.00000000
  52        -0.00000000
  53         0.00000000
  54        -0.00000000
  55         0.00884422
  56         0.00000000
  57        -0.00000000
  58        -0.00000000
  59         0.00000001
  60         0.00000000
Sym=     6a  
Ene=    -0.6580
Spin= Alpha
Occup=    2.00000
   1        -0.00000000
   2        -0.00000000
   3         0.00000000
   4        -0.00000000
   5        -0.00000000
   6         0.64492978
   7         0.00000000
   8         0.00000000
   9        -0.01722709
  10         0.00000000
  11         0.00000000
  12        -0.05866728
  13        -0.00000000
  14        -0.00000000
  15        -0.00000000
  16         0.02413868
  17        -0.00000000
  18        -0.00000000
  19         0.00000000
  20        -0.00000000
  21         0.03752572
  22         0.00000000
  23         0.00000000
  24        -0.00000000
  25        -0.00000000
  26         0.00884266
  27        -0.00000000
  28        -0.00000000
  29        -0.00000000
  30        -0.00000012
  31         0.00000000
  32         0.00000000
  33        -0.00000000
  34         0.00000000
  35        -0.00000000
  36         0.64491793
  37         0.00000000
  38         0.00000000
  39        -0.01721018
  40        -0.00000000
  41         0.00000000
  42        -0.05865689
  43        -0.00000000
  44        -0.00000000
  45         0.00000000
  46        -0.02413891
  47        -0.00000000
  48        -0.00000000
  49        -0.00000000
  50         0.00000000
  51        -0.03753705
  52        -0.00000000
  53        -0.00000000
  54         0.00000000
  55        -0.00000000
  56         0.00884555
  57         0.00000000
  58        -0.00000000
  59         0.00000000
  60         0.00000001
Sym=     7a  
Ene=    -0.6409
Spin= Alpha
Occup=    2.00000
   1         0.00709143
   2         0.23970735
   3        -0.00293691
   4         0.19245072
   5        -0.00000000
   6        -0.00000000
   7        -0.71599839
   8        -0.00000000
   9         0.00000000
  10         0.06732419
  11        -0.00000000
  12         0.00000000
  13         0.09945168
  14        -0.01979774
  15         0.00000000
  16        -0.00000000
  17        -0.00000003
  18         0.00000000
  19        -0.01279641
  20         0.00000000
  21        -0.00000000
  22         0.00000003
  23        -0.00000000
  24        -0.00471306
  25         0.00000000
  26        -0.00000000
  27         0.00000001
  28         0.00000000
  29         0.00000000
  30         0.00000000
  31         0.00708714
  32         0.23968215
  33        -0.00293667
  34         0.19236923
  35         0.00000000
  36        -0.00000000
  37         0.71596110
  38        -0.00000000
  39         0.00000000
  40        -0.06728919
  41        -0.00000000
  42         0.00000000
  43        -0.09940803
  44        -0.01979937
  45        -0.00000000
  46         0.00000000
  47         0.00000000
  48         0.00000000
  49        -0.01280411
  50        -0.00000000
  51         0.00000000
  52         0.00000001
  53        -0.00000000
  54         0.00471405
  55        -0.00000000
  56         0.00000000
  57         0.00000000
  58         0.00000000
  59        -0.00000000
  60        -0.00000000
Sym=     8a  
Ene=     0.2121
Spin= Alpha
Occup=    0.00000
   1        -0.00000000
   2        -0.00000000
   3         0.00000000
   4         0.00000000
   5        -0.00000000
   6        -0.59236742
   7        -0.00000000
   8        -0.00000000
   9        -0.00495586
  10         0.00000000
  11        -0.00000000
  12        -0.66351135
  13        -0.00000000
  14        -0.00000000
  15         0.00000000
  16         0.01587785
  17         0.00000000
  18        -0.00000000
  19        -0.00000000
  20        -0.00000000
  21        -0.03060761
  22        -0.00000000
  23        -0.00000000
  24        -0.00000000
  25        -0.00000000
  26        -0.00385881
  27         0.00000000
  28         0.00000000
  29         0.00000000
  30         0.00000002
  31        -0.00000000
  32        -0.00000000
  33         0.00000000
  34         0.00000000
  35         0.00000000
  36         0.59235960
  37         0.00000000
  38         0.00000000
  39         0.00495709
  40        -0.00000000
  41         0.00000000
  42         0.66351990
  43         0.00000000
  44        -0.00000000
  45         0.00000000
  46         0.01587819
  47         0.00000000
  48         0.00000000
  49        -0.00000000
  50        -0.00000000
  51        -0.03060805
  52         0.00000000
  53         0.00000000
  54         0.00000000
  55         0.00000000
  56         0.00385894
  57        -0.00000000
  58        -0.00000000
  59        -0.00000000
  60         0.00000021
Sym=     9a  
Ene=     0.2121
Spin= Alpha
Occup=    0.00000
   1         0.00000000
   2         0.00000000
   3        -0.00000000
   4        -0.00000000
   5        -0.59236778
   6         0.00000000
   7         0.00000000
   8        -0.00495661
   9         0.00000000
  10        -0.00000000
  11        -0.66351069
  12         0.00000000
  13        -0.00000000
  14         0.00000000
  15         0.01587833
  16        -0.00000000
  17        -0.00000000
  18        -0.00000000
  19         0.00000000
  20        -0.03061099
  21         0.00000000
  22        -0.00000000
  23         0.00000000
  24         0.00000000
  25        -0.00385936
  26         0.00000000
  27         0.00000000
  28        -0.00000000
  29         0.00000004
  30         0.00000000
  31         0.00000000
  32         0.00000000
  33        -0.00000000
  34         0.00000000
  35         0.59236042
  36        -0.00000000
  37        -0.00000000
  38         0.00495999
  39        -0.00000000
  40        -0.00000000
  41         0.66351847
  42        -0.00000000
  43        -0.00000000
  44         0.00000000
  45         0.01587762
  46        -0.00000000
  47         0.00000000
  48        -0.00000000
  49         0.00000000
  50        -0.03060789
  51         0.00000000
  52         0.00000000
  53        -0.00000000
  54        -0.00000000
  55         0.00385913
  56        -0.00000000
  57        -0.00000000
  58         0.00000000
  59        -0.00000025
  60        -0.00000000
Sym=    10a  
Ene=     0.4330
Spin= Alpha
Occup=    0.00000
   1        -0.06376339
   2        -0.51030744
   3         0.00292717
   4        -8.28204430
   5        -0.00000000
   6         0.00000000
   7         0.09772319
   8        -0.00000000
   9         0.00000000
  10        -0.31456153
  11         0.00000000
  12        -0.00000000
  13        -4.13924820
  14         0.02051845
  15        -0.00000000
  16        -0.00000000
  17         0.00000029
  18        -0.00000000
  19        -0.27769037
  20        -0.00000000
  21         0.00000000
  22        -0.00000188
  23         0.00000000
  24        -0.01448340
  25         0.00000000
  26         0.00000000
  27         0.00000001
  28        -0.00000000
  29         0.00000000
  30         0.00000000
  31         0.06370693
  32         0.51012870
  33        -0.00293797
  34         8.28207749
  35         0.00000000
  36        -0.00000000
  37         0.09782589
  38         0.00000000
  39        -0.00000000
  40        -0.31449251
  41        -0.00000000
  42         0.00000000
  43        -4.13975022
  44        -0.02053802
  45         0.00000000
  46        -0.00000000
  47        -0.00000049
  48         0.00000000
  49         0.27778978
  50         0.00000000
  51         0.00000000
  52        -0.00000125
  53         0.00000000
  54        -0.01450055
  55        -0.00000000
  56         0.00000000
  57        -0.00000012
  58        -0.00000000
  59         0.00000000
  60         0.00000000
Sym=    11a  
Ene=     0.5454
Spin= Alpha
Occup=    0.00000
   1         0.00000000
   2         0.00000000
   3         0.00000000
   4         0.00000000
   5        -0.00000000
   6        -0.36054338
   7         0.00000000
   8        -0.00000000
   9        -0.31381764
  10         0.00000000
  11         0.00000000
  12         0.81717908
  13        -0.00000000
  14         0.00000000
  15        -0.00000000
  16        -0.01861836
  17        -0.00000000
  18        -0.00000000
  19        -0.00000000
  20        -0.00000000
  21        -0.05995421
  22         0.00000000
  23         0.00000000
  24        -0.00000000
  25         0.00000000
  26         0.00305991
  27        -0.00000000
  28        -0.00000000
  29        -0.00000000
  30         0.00000030
  31         0.00000000
  32         0.00000000
  33         0.00000000
  34        -0.00000000
  35        -0.00000000
  36        -0.36055541
  37        -0.00000000
  38        -0.00000000
  39        -0.31380147
  40        -0.00000000
  41         0.00000000
  42         0.81721064
  43         0.00000000
  44         0.00000000
  45         0.00000000
  46         0.01861892
  47        -0.00000000
  48        -0.00000000
  49        -0.00000000
  50         0.00000000
  51         0.05992364
  52         0.00000000
  53         0.00000000
  54         0.00000000
  55         0.00000000
  56         0.00306660
  57         0.00000000
  58         0.00000000
  59        -0.00000000
  60         0.00000022
Sym=    12a  
Ene=     0.5454
Spin= Alpha
Occup=    0.00000
   1        -0.00000000
   2        -0.00000000
   3        -0.00000000
   4         0.00000000
   5        -0.36054552
   6         0.00000000
   7        -0.00000000
   8        -0.31381163
   9         0.00000000
  10        -0.00000000
  11         0.81718767
  12        -0.00000000
  13         0.00000000
  14        -0.00000000
  15        -0.01861845
  16         0.00000000
  17        -0.00000000
  18         0.00000000
  19         0.00000000
  20        -0.05994470
  21         0.00000000
  22         0.00000000
  23        -0.00000000
  24         0.00000000
  25         0.00306186
  26        -0.00000000
  27        -0.00000000
  28         0.00000000
  29        -0.00000030
  30        -0.00000000
  31        -0.00000000
  32        -0.00000000
  33        -0.00000000
  34        -0.00000000
  35        -0.36055338
  36         0.00000000
  37         0.00000000
  38        -0.31380807
  39         0.00000000
  40         0.00000000
  41         0.81720235
  42        -0.00000000
  43        -0.00000000
  44        -0.00000000
  45         0.01861942
  46        -0.00000000
  47        -0.00000000
  48         0.00000000
  49         0.00000000
  50         0.05993164
  51        -0.00000000
  52         0.00000000
  53        -0.00000000
  54        -0.00000000
  55         0.00306475
  56        -0.00000000
  57         0.00000000
  58        -0.00000000
  59        -0.00000024
  60        -0.00000000
Sym=    13a  
Ene=     0.5484
Spin= Alpha
Occup=    0.00000
   1         0.07922267
   2         0.23674001
   3         0.05433771
   4         0.13957717
   5        -0.00000000
   6         0.00000000
   7         0.34516391
   8        -0.00000000
   9         0.00000000
  10         0.18987054
  11         0.00000000
  12        -0.00000000
  13        -1.46146315
  14         0.04535845
  15        -0.00000000
  16         0.00000000
  17         0.00000045
  18        -0.00000000
  19        -0.16923263
  20        -0.00000000
  21         0.00000000
  22        -0.00000347
  23        -0.00000000
  24        -0.03052523
  25         0.00000000
  26         0.00000000
  27        -0.00000031
  28        -0.00000000
  29        -0.00000000
  30        -0.00000000
  31         0.07919234
  32         0.23677040
  33         0.05435599
  34         0.14067166
  35        -0.00000000
  36         0.00000000
  37        -0.34512567
  38        -0.00000000
  39         0.00000000
  40        -0.18971067
  41         0.00000000
  42        -0.00000000
  43         1.46072386
  44         0.04534330
  45         0.00000000
  46        -0.00000000
  47        -0.00000018
  48         0.00000000
  49        -0.16927122
  50         0.00000000
  51        -0.00000000
  52         0.00000109
  53        -0.00000000
  54         0.03053596
  55         0.00000000
  56        -0.00000000
  57        -0.00000032
  58         0.00000000
  59         0.00000000
  60        -0.00000000
Sym=    14a  
Ene=     0.6834
Spin= Alpha
Occup=    0.00000
   1         0.32054335
   2         1.55261804
   3        -0.09543098
   4        -1.50765615
   5        -0.00000000
   6         0.00000000
   7        -0.15440270
   8        -0.00000000
   9         0.00000000
  10        -0.10324619
  11         0.00000000
  12        -0.00000000
  13         0.01733158
  14         0.00625412
  15        -0.00000000
  16         0.00000000
  17         0.00000038
  18        -0.00000000
  19         0.13047387
  20         0.00000000
  21        -0.00000000
  22        -0.00000383
  23        -0.00000000
  24        -0.00739108
  25         0.00000000
  26        -0.00000000
  27        -0.00000030
  28        -0.00000000
  29         0.00000000
  30        -0.00000000
  31         0.32040214
  32         1.55220551
  33        -0.09533492
  34        -1.50792823
  35        -0.00000000
  36        -0.00000000
  37         0.15437730
  38        -0.00000000
  39         0.00000000
  40         0.10350426
  41         0.00000000
  42         0.00000000
  43        -0.01717709
  44         0.00623388
  45         0.00000000
  46        -0.00000000
  47        -0.00000041
  48         0.00000000
  49         0.13038160
  50         0.00000000
  51        -0.00000000
  52        -0.00000047
  53        -0.00000000
  54         0.00740955
  55        -0.00000000
  56         0.00000000
  57        -0.00000022
  58        -0.00000000
  59         0.00000000
  60         0.00000000
Sym=    15a  
Ene=     0.7523
Spin= Alpha
Occup=    0.00000
   1        -0.00000000
   2        -0.00000000
   3         0.00000000
   4         0.00000000
   5         0.00000000
   6         0.61706344
   7         0.00000000
   8         0.00000000
   9         0.15126774
  10         0.00000000
  11        -0.00000000
  12        -1.85251926
  13         0.00000000
  14         0.00000000
  15         0.00000000
  16         0.00654667
  17         0.00000000
  18         0.00000000
  19         0.00000000
  20        -0.00000000
  21        -0.37375303
  22        -0.00000000
  23         0.00000000
  24         0.00000000
  25        -0.00000000
  26        -0.05342326
  27        -0.00000000
  28        -0.00000000
  29        -0.00000000
  30         0.00000016
  31        -0.00000000
  32        -0.00000000
  33         0.00000000
  34        -0.00000000
  35        -0.00000000
  36        -0.61705372
  37        -0.00000000
  38        -0.00000000
  39        -0.15127941
  40         0.00000000
  41         0.00000000
  42         1.85251052
  43         0.00000000
  44        -0.00000000
  45         0.00000000
  46         0.00654900
  47        -0.00000000
  48        -0.00000000
  49        -0.00000000
  50        -0.00000000
  51        -0.37376952
  52        -0.00000000
  53         0.00000000
  54         0.00000000
  55         0.00000000
  56         0.05342442
  57        -0.00000000
  58         0.00000000
  59         0.00000000
  60        -0.00000046
Sym=    16a  
Ene=     0.7523
Spin= Alpha
Occup=    0.00000
   1         0.00000000
   2         0.00000000
   3        -0.00000000
   4        -0.00000000
   5         0.61706315
   6        -0.00000000
   7        -0.00000000
   8         0.15126507
   9        -0.00000000
  10        -0.00000000
  11        -1.85252236
  12         0.00000000
  13        -0.00000000
  14        -0.00000000
  15         0.00654757
  16        -0.00000000
  17         0.00000000
  18        -0.00000000
  19        -0.00000000
  20        -0.37376505
  21         0.00000000
  22         0.00000000
  23         0.00000000
  24        -0.00000000
  25        -0.05342478
  26         0.00000000
  27        -0.00000000
  28         0.00000000
  29        -0.00000008
  30        -0.00000000
  31         0.00000000
  32         0.00000000
  33        -0.00000000
  34         0.00000000
  35        -0.61705376
  36         0.00000000
  37         0.00000000
  38        -0.15127184
  39         0.00000000
  40        -0.00000000
  41         1.85251492
  42        -0.00000000
  43        -0.00000000
  44         0.00000000
  45         0.00654838
  46        -0.00000000
  47        -0.00000000
  48         0.00000000
  49         0.00000000
  50        -0.37376963
  51         0.00000000
  52         0.00000000
  53         0.00000000
  54        -0.00000000
  55         0.05342544
  56        -0.00000000
  57         0.00000000
  58         0.00000000
  59         0.00000044
  60         0.00000000
Sym=    17a  
Ene=     0.9585
Spin= Alpha
Occup=    0.00000
   1         0.00794142
   2         0.26280811
   3        -0.00619424
   4       -11.54959460
   5        -0.00000000
   6         0.00000000
   7        -0.27350925
   8        -0.00000000
   9         0.00000000
  10        -1.48722475
  11         0.00000000
  12        -0.00000000
  13        -3.89137430
  14        -0.04713589
  15        -0.00000000
  16         0.00000000
  17         0.00000032
  18        -0.00000000
  19        -0.45150534
  20         0.00000000
  21        -0.00000000
  22        -0.00001051
  23         0.00000000
  24        -0.06973413
  25         0.00000000
  26        -0.00000000
  27        -0.00000015
  28         0.00000000
  29        -0.00000000
  30         0.00000000
  31        -0.00793900
  32        -0.26279386
  33         0.00619763
  34        11.54960413
  35         0.00000000
  36        -0.00000000
  37        -0.27354357
  38         0.00000000
  39        -0.00000000
  40        -1.48723311
  41        -0.00000000
  42         0.00000000
  43        -3.89126380
  44         0.04714022
  45        -0.00000000
  46         0.00000000
  47        -0.00000054
  48        -0.00000000
  49         0.45151173
  50         0.00000000
  51        -0.00000000
  52        -0.00001025
  53         0.00000000
  54        -0.06973367
  55        -0.00000000
  56         0.00000000
  57        -0.00000036
  58         0.00000000
  59         0.00000000
  60        -0.00000000
Sym=    18a  
Ene=     1.0451
Spin= Alpha
Occup=    0.00000
   1         0.00000031
   2         0.00000546
   3         0.00000069
   4        -0.00020929
   5        -0.00000000
   6         0.00000000
   7        -0.00000581
   8         0.00000000
   9         0.00000000
  10        -0.00002632
  11        -0.00000000
  12        -0.00000000
  13        -0.00007377
  14        -0.00000043
  15         0.00000000
  16         0.00000000
  17        -0.00519735
  18        -0.00000000
  19        -0.00000674
  20         0.00000000
  21         0.00000000
  22         0.59261472
  23         0.00000000
  24        -0.00000150
  25        -0.00000000
  26        -0.00000000
  27         0.00260541
  28         0.00000000
  29         0.00000000
  30        -0.00000000
  31         0.00000118
  32         0.00000412
  33         0.00000049
  34         0.00020036
  35        -0.00000000
  36        -0.00000000
  37        -0.00000737
  38         0.00000000
  39         0.00000000
  40        -0.00002503
  41        -0.00000000
  42        -0.00000000
  43        -0.00006847
  44         0.00000084
  45         0.00000000
  46         0.00000000
  47        -0.00519659
  48        -0.00000000
  49         0.00000725
  50        -0.00000000
  51        -0.00000000
  52         0.59262270
  53         0.00000000
  54        -0.00000107
  55        -0.00000000
  56        -0.00000000
  57        -0.00260509
  58        -0.00000000
  59         0.00000000
  60        -0.00000000
Sym=    19a  
Ene=     1.0451
Spin= Alpha
Occup=    0.00000
   1         0.00000000
   2        -0.00000000
   3         0.00000000
   4         0.00000000
   5        -0.00000000
   6        -0.00000000
   7        -0.00000000
   8        -0.00000000