[Molden Format]
[N_Atoms]
                    2
[Atoms] (AU)
N1          1      7           0.00000000      0.00000000      0.00000000
N2          2      7           0.00000000      0.00000000      9.44863062
[5D]
[7F]
[Charge] (Mulliken)
   0.0000000000000000     
   0.0000000000000000     
[GTO] (AU)
   1
   s  10
  1.142000000E+04  5.229996559E-04
  1.712000000E+03  4.044997339E-03
  3.893000000E+02  2.077498633E-02
  1.100000000E+02  8.072694689E-02
  3.557000000E+01  2.330738467E-01
  1.254000000E+01  4.335007148E-01
  4.644000000E+00  3.474717714E-01
  1.293000000E+00  4.126197285E-02
  5.118000000E-01 -8.507994403E-03
  1.787000000E-01  2.383998432E-03
   s  10
  1.142000000E+04 -1.149999544E-04
  1.712000000E+03 -8.949996452E-04
  3.893000000E+02 -4.623998167E-03
  1.100000000E+02 -1.852799265E-02
  3.557000000E+01 -5.733897727E-02
  1.254000000E+01 -1.320759476E-01
  4.644000000E+00 -1.725099316E-01
  1.293000000E+00  1.518139398E-01
  5.118000000E-01  5.999437621E-01
  1.787000000E-01  3.874618464E-01
   s   1
  1.293000000E+00  1.000000000E+00
   s   1
  1.787000000E-01  1.000000000E+00
   p   5
  2.663000000E+01  1.467000345E-02
  5.948000000E+00  9.176402155E-02
  1.742000000E+00  2.986830701E-01
  5.550000000E-01  4.984871171E-01
  1.725000000E-01  3.370230791E-01
   p   1
  5.550000000E-01  1.000000000E+00
   p   1
  1.725000000E-01  1.000000000E+00
   d   1
  1.654000000E+00  1.000000000E+00
   d   1
  4.690000000E-01  1.000000000E+00
   f   1
  1.093000000E+00  1.000000000E+00
 
   2
   s  10
  1.142000000E+04  5.229996559E-04
  1.712000000E+03  4.044997339E-03
  3.893000000E+02  2.077498633E-02
  1.100000000E+02  8.072694689E-02
  3.557000000E+01  2.330738467E-01
  1.254000000E+01  4.335007148E-01
  4.644000000E+00  3.474717714E-01
  1.293000000E+00  4.126197285E-02
  5.118000000E-01 -8.507994403E-03
  1.787000000E-01  2.383998432E-03
   s  10
  1.142000000E+04 -1.149999544E-04
  1.712000000E+03 -8.949996452E-04
  3.893000000E+02 -4.623998167E-03
  1.100000000E+02 -1.852799265E-02
  3.557000000E+01 -5.733897727E-02
  1.254000000E+01 -1.320759476E-01
  4.644000000E+00 -1.725099316E-01
  1.293000000E+00  1.518139398E-01
  5.118000000E-01  5.999437621E-01
  1.787000000E-01  3.874618464E-01
   s   1
  1.293000000E+00  1.000000000E+00
   s   1
  1.787000000E-01  1.000000000E+00
   p   5
  2.663000000E+01  1.467000345E-02
  5.948000000E+00  9.176402155E-02
  1.742000000E+00  2.986830701E-01
  5.550000000E-01  4.984871171E-01
  1.725000000E-01  3.370230791E-01
   p   1
  5.550000000E-01  1.000000000E+00
   p   1
  1.725000000E-01  1.000000000E+00
   d   1
  1.654000000E+00  1.000000000E+00
   d   1
  4.690000000E-01  1.000000000E+00
   f   1
  1.093000000E+00  1.000000000E+00
 
[MO]
Sym=     1a  
Ene=   -15.6340
Spin= Alpha
Occup=    2.00000
   1         0.70768661
   2         0.00342686
   3        -0.00165281
   4         0.00194493
   5         0.00000000
   6        -0.00000000
   7         0.00000010
   8         0.00000000
   9         0.00000000
  10        -0.00000000
  11        -0.00000000
  12         0.00000000
  13        -0.00000000
  14         0.00000000
  15         0.00000000
  16         0.00000000
  17        -0.00000000
  18         0.00000000
  19        -0.00000000
  20        -0.00000000
  21         0.00000000
  22         0.00000000
  23        -0.00000000
  24        -0.00000000
  25         0.00000000
  26         0.00000000
  27        -0.00000000
  28        -0.00000000
  29         0.00000000
  30        -0.00000000
  31         0.70768662
  32         0.00342686
  33        -0.00165281
  34         0.00194493
  35        -0.00000000
  36        -0.00000000
  37        -0.00000010
  38        -0.00000000
  39         0.00000000
  40         0.00000000
  41         0.00000000
  42         0.00000000
  43         0.00000000
  44         0.00000000
  45         0.00000000
  46         0.00000000
  47        -0.00000000
  48        -0.00000000
  49        -0.00000000
  50        -0.00000000
  51         0.00000000
  52         0.00000000
  53        -0.00000000
  54         0.00000000
  55        -0.00000000
  56         0.00000000
  57         0.00000000
  58        -0.00000000
  59         0.00000000
  60        -0.00000000
Sym=     2a  
Ene=   -15.6340
Spin= Alpha
Occup=    2.00000
   1        -0.70768664
   2        -0.00342677
   3         0.00165281
   4        -0.00194493
   5        -0.00000000
   6        -0.00000000
   7         0.00000010
   8         0.00000000
   9         0.00000000
  10        -0.00000000
  11        -0.00000000
  12         0.00000000
  13        -0.00000000
  14         0.00000000
  15        -0.00000000
  16        -0.00000000
  17         0.00000000
  18         0.00000000
  19        -0.00000000
  20         0.00000000
  21        -0.00000000
  22        -0.00000000
  23        -0.00000000
  24        -0.00000000
  25        -0.00000000
  26         0.00000000
  27        -0.00000000
  28        -0.00000000
  29         0.00000000
  30        -0.00000000
  31         0.70768662
  32         0.00342677
  33        -0.00165281
  34         0.00194493
  35         0.00000000
  36        -0.00000000
  37         0.00000010
  38         0.00000000
  39         0.00000000
  40        -0.00000000
  41        -0.00000000
  42         0.00000000
  43        -0.00000000
  44         0.00000000
  45        -0.00000000
  46         0.00000000
  47        -0.00000000
  48         0.00000000
  49        -0.00000000
  50         0.00000000
  51        -0.00000000
  52         0.00000000
  53        -0.00000000
  54         0.00000000
  55        -0.00000000
  56         0.00000000
  57         0.00000000
  58        -0.00000000
  59         0.00000000
  60        -0.00000000
Sym=     3a  
Ene=    -0.9454
Spin= Alpha
Occup=    2.00000
   1        -0.00858458
   2         0.69875160
   3         0.00702344
   4         0.00403549
   5         0.00000000
   6        -0.00000000
   7         0.00022662
   8         0.00000000
   9         0.00000000
  10        -0.00000396
  11         0.00000000
  12        -0.00000000
  13        -0.00001055
  14        -0.00000000
  15        -0.00000000
  16         0.00000000
  17        -0.00000000
  18         0.00000000
  19         0.00000000
  20         0.00000000
  21        -0.00000000
  22        -0.00000000
  23        -0.00000000
  24         0.00000000
  25         0.00000000
  26         0.00000000
  27         0.00000000
  28         0.00000000
  29        -0.00000000
  30        -0.00000000
  31        -0.00858458
  32         0.69875160
  33         0.00702344
  34         0.00403549
  35         0.00000000
  36         0.00000000
  37        -0.00022662
  38         0.00000000
  39        -0.00000000
  40         0.00000396
  41        -0.00000000
  42        -0.00000000
  43         0.00001055
  44         0.00000000
  45        -0.00000000
  46        -0.00000000
  47        -0.00000000
  48         0.00000000
  49        -0.00000000
  50         0.00000000
  51         0.00000000
  52         0.00000000
  53        -0.00000000
  54        -0.00000000
  55         0.00000000
  56         0.00000000
  57        -0.00000000
  58        -0.00000000
  59         0.00000000
  60         0.00000000
Sym=     4a  
Ene=    -0.9453
Spin= Alpha
Occup=    2.00000
   1         0.00858359
   2        -0.69878979
   3        -0.00702382
   4        -0.00403572
   5        -0.00000000
   6        -0.00000000
   7         0.00022625
   8        -0.00000000
   9         0.00000000
  10        -0.00000395
  11        -0.00000000
  12         0.00000000
  13        -0.00001053
  14        -0.00000000
  15        -0.00000000
  16        -0.00000000
  17        -0.00000000
  18         0.00000000
  19        -0.00000000
  20        -0.00000000
  21         0.00000000
  22         0.00000000
  23        -0.00000000
  24         0.00000000
  25         0.00000000
  26         0.00000000
  27         0.00000000
  28         0.00000000
  29        -0.00000000
  30        -0.00000000
  31        -0.00858359
  32         0.69878979
  33         0.00702382
  34         0.00403572
  35        -0.00000000
  36         0.00000000
  37         0.00022625
  38        -0.00000000
  39        -0.00000000
  40        -0.00000395
  41         0.00000000
  42        -0.00000000
  43        -0.00001053
  44         0.00000000
  45         0.00000000
  46         0.00000000
  47        -0.00000000
  48        -0.00000000
  49         0.00000000
  50         0.00000000
  51        -0.00000000
  52         0.00000000
  53         0.00000000
  54        -0.00000000
  55         0.00000000
  56         0.00000000
  57        -0.00000000
  58        -0.00000000
  59         0.00000000
  60         0.00000000
Sym=     5a  
Ene=    -0.5710
Spin= Alpha
Occup=    1.00000
   1        -0.00000174
   2         0.00035202
   3         0.00000353
   4         0.00000204
   5         0.00000000
   6        -0.00000000
   7        -0.74484493
   8         0.00000000
   9         0.00000000
  10         0.01300679
  11        -0.00000000
  12         0.00000000
  13         0.03467055
  14        -0.00000000
  15         0.00000000
  16        -0.00000000
  17         0.00000000
  18         0.00000000
  19         0.00000000
  20        -0.00000000
  21         0.00000000
  22        -0.00000000
  23        -0.00000000
  24        -0.00000000
  25         0.00000000
  26        -0.00000000
  27         0.00000000
  28        -0.00000000
  29        -0.00000000
  30        -0.00000000
  31        -0.00000174
  32         0.00035202
  33         0.00000353
  34         0.00000204
  35         0.00000000
  36        -0.00000000
  37         0.74484493
  38        -0.00000000
  39         0.00000000
  40        -0.01300679
  41         0.00000000
  42         0.00000000
  43        -0.03467055
  44        -0.00000000
  45        -0.00000000
  46        -0.00000000
  47        -0.00000000
  48         0.00000000
  49         0.00000000
  50         0.00000000
  51         0.00000000
  52         0.00000000
  53        -0.00000000
  54         0.00000000
  55         0.00000000
  56         0.00000000
  57         0.00000000
  58        -0.00000000
  59         0.00000000
  60         0.00000000
Sym=     6a  
Ene=    -0.5706
Spin= Alpha
Occup=    1.00000
   1         0.00000000
   2         0.00000000
   3        -0.00000000
   4        -0.00000000
   5         0.00000001
   6         0.74507008
   7         0.00000000
   8        -0.00000000
   9        -0.01301072
  10        -0.00000000
  11        -0.00000000
  12        -0.03468103
  13        -0.00000000
  14        -0.00000000
  15        -0.00000000
  16        -0.00000000
  17         0.00000000
  18         0.00000000
  19         0.00000000
  20         0.00000000
  21        -0.00000000
  22        -0.00000000
  23        -0.00000000
  24        -0.00000000
  25         0.00000000
  26        -0.00000000
  27         0.00000000
  28        -0.00000000
  29        -0.00000000
  30         0.00000000
  31        -0.00000000
  32        -0.00000000
  33         0.00000000
  34         0.00000000
  35         0.00000001
  36         0.74507008
  37         0.00000000
  38        -0.00000000
  39        -0.01301072
  40        -0.00000000
  41        -0.00000000
  42        -0.03468103
  43        -0.00000000
  44        -0.00000000
  45         0.00000000
  46         0.00000000
  47         0.00000000
  48        -0.00000000
  49         0.00000000
  50        -0.00000000
  51        -0.00000000
  52         0.00000000
  53         0.00000000
  54        -0.00000000
  55        -0.00000000
  56        -0.00000000
  57         0.00000000
  58        -0.00000000
  59         0.00000000
  60         0.00000000
Sym=     7a  
Ene=    -0.5706
Spin= Alpha
Occup=    1.00000
   1        -0.00000000
   2        -0.00000000
   3         0.00000000
   4         0.00000000
   5         0.74507008
   6        -0.00000001
   7         0.00000000
   8        -0.01301072
   9         0.00000000
  10         0.00000000
  11        -0.03468103
  12         0.00000000
  13         0.00000000
  14         0.00000000
  15        -0.00000000
  16         0.00000000
  17         0.00000000
  18         0.00000000
  19        -0.00000000
  20        -0.00000000
  21         0.00000000
  22        -0.00000000
  23         0.00000000
  24        -0.00000000
  25        -0.00000000
  26         0.00000000
  27         0.00000000
  28        -0.00000000
  29        -0.00000000
  30        -0.00000000
  31        -0.00000000
  32        -0.00000000
  33         0.00000000
  34         0.00000000
  35         0.74507008
  36        -0.00000001
  37         0.00000000
  38        -0.01301072
  39         0.00000000
  40         0.00000000
  41        -0.03468103
  42         0.00000000
  43        -0.00000000
  44         0.00000000
  45        -0.00000000
  46        -0.00000000
  47        -0.00000000
  48        -0.00000000
  49        -0.00000000
  50         0.00000000
  51        -0.00000000
  52         0.00000000
  53        -0.00000000
  54         0.00000000
  55         0.00000000
  56        -0.00000000
  57         0.00000000
  58         0.00000000
  59         0.00000000
  60        -0.00000000
Sym=     8a  
Ene=    -0.5706
Spin= Alpha
Occup=    1.00000
   1         0.00000000
   2         0.00000000
   3        -0.00000000
   4        -0.00000000
   5        -0.00000000
   6        -0.74510294
   7         0.00000000
   8         0.00000000
   9         0.01301129
  10        -0.00000000
  11         0.00000000
  12         0.03468256
  13        -0.00000000
  14        -0.00000000
  15         0.00000000
  16        -0.00000000
  17         0.00000000
  18         0.00000000
  19        -0.00000000
  20        -0.00000000
  21         0.00000000
  22        -0.00000000
  23        -0.00000000
  24         0.00000000
  25        -0.00000000
  26         0.00000000
  27        -0.00000000
  28         0.00000000
  29        -0.00000000
  30         0.00000000
  31         0.00000000
  32         0.00000000
  33        -0.00000000
  34        -0.00000000
  35         0.00000000
  36         0.74510294
  37         0.00000000
  38        -0.00000000
  39        -0.01301129
  40        -0.00000000
  41        -0.00000000
  42        -0.03468256
  43        -0.00000000
  44        -0.00000000
  45        -0.00000000
  46         0.00000000
  47        -0.00000000
  48        -0.00000000
  49         0.00000000
  50         0.00000000
  51        -0.00000000
  52        -0.00000000
  53         0.00000000
  54         0.00000000
  55         0.00000000
  56         0.00000000
  57        -0.00000000
  58        -0.00000000
  59         0.00000000
  60         0.00000000
Sym=     9a  
Ene=    -0.5706
Spin= Alpha
Occup=    1.00000
   1        -0.00000000
   2        -0.00000000
   3         0.00000000
   4         0.00000000
   5        -0.74510294
   6         0.00000000
   7        -0.00000000
   8         0.01301129
   9        -0.00000000
  10         0.00000000
  11         0.03468256
  12        -0.00000000
  13         0.00000000
  14         0.00000000
  15         0.00000000
  16         0.00000000
  17        -0.00000000
  18         0.00000000
  19        -0.00000000
  20         0.00000000
  21         0.00000000
  22         0.00000000
  23         0.00000000
  24        -0.00000000
  25        -0.00000000
  26         0.00000000
  27        -0.00000000
  28        -0.00000000
  29         0.00000000
  30         0.00000000
  31         0.00000000
  32         0.00000000
  33         0.00000000
  34        -0.00000000
  35         0.74510294
  36        -0.00000000
  37        -0.00000000
  38        -0.01301129
  39         0.00000000
  40        -0.00000000
  41        -0.03468256
  42         0.00000000
  43         0.00000000
  44         0.00000000
  45        -0.00000000
  46        -0.00000000
  47         0.00000000
  48        -0.00000000
  49        -0.00000000
  50        -0.00000000
  51        -0.00000000
  52        -0.00000000
  53        -0.00000000
  54         0.00000000
  55         0.00000000
  56        -0.00000000
  57         0.00000000
  58        -0.00000000
  59         0.00000000
  60         0.00000000
Sym=    10a  
Ene=    -0.5702
Spin= Alpha
Occup=    1.00000
   1        -0.00000173
   2         0.00035165
   3         0.00000353
   4         0.00000204
   5        -0.00000000
   6        -0.00000000
   7         0.74532828
   8         0.00000000
   9         0.00000000
  10        -0.01301523
  11         0.00000000
  12         0.00000000
  13        -0.03469304
  14        -0.00000000
  15        -0.00000000
  16         0.00000000
  17         0.00000000
  18        -0.00000000
  19         0.00000000
  20        -0.00000000
  21         0.00000000
  22        -0.00000000
  23         0.00000000
  24        -0.00000000
  25         0.00000000
  26        -0.00000000
  27        -0.00000000
  28         0.00000000
  29         0.00000000
  30        -0.00000000
  31         0.00000173
  32        -0.00035165
  33        -0.00000353
  34        -0.00000204
  35         0.00000000
  36        -0.00000000
  37         0.74532828
  38        -0.00000000
  39         0.00000000
  40        -0.01301523
  41        -0.00000000
  42         0.00000000
  43        -0.03469304
  44         0.00000000
  45         0.00000000
  46         0.00000000
  47         0.00000000
  48         0.00000000
  49        -0.00000000
  50         0.00000000
  51         0.00000000
  52        -0.00000000
  53        -0.00000000
  54         0.00000000
  55         0.00000000
  56         0.00000000
  57         0.00000000
  58        -0.00000000
  59         0.00000000
  60        -0.00000000
Sym=    11a  
Ene=     3.9939
Spin= Alpha
Occup=    0.00000
   1         0.00952396
   2         0.03459160
   3        -0.00790056
   4        -0.03188933
   5         0.00000000
   6         0.00000000
   7        -0.10091832
   8        -0.00000000
   9        -0.00000000
  10         0.80901637
  11         0.00000000
  12         0.00000000
  13        -0.91121165
  14         0.00030431
  15        -0.00000000
  16         0.00000000
  17        -0.00000000
  18        -0.00000000
  19        -0.00182776
  20         0.00000000
  21        -0.00000000
  22         0.00000000
  23         0.00000000
  24        -0.00002170
  25        -0.00000000
  26        -0.00000000
  27        -0.00000000
  28         0.00000000
  29         0.00000000
  30        -0.00000000
  31         0.00952396
  32         0.03459160
  33        -0.00790056
  34        -0.03188933
  35         0.00000000
  36         0.00000000
  37         0.10091832
  38        -0.00000000
  39        -0.00000000
  40        -0.80901637
  41         0.00000000
  42         0.00000000
  43         0.91121165
  44         0.00030431
  45         0.00000000
  46         0.00000000
  47        -0.00000000
  48        -0.00000000
  49        -0.00182776
  50        -0.00000000
  51        -0.00000000
  52         0.00000000
  53         0.00000000
  54         0.00002170
  55         0.00000000
  56        -0.00000000
  57        -0.00000000
  58         0.00000000
  59        -0.00000000
  60        -0.00000000
Sym=    12a  
Ene=     4.0078
Spin= Alpha
Occup=    0.00000
   1         0.00000000
   2         0.00000000
   3        -0.00000000
   4        -0.00000000
   5         0.00012194
   6         0.09990703
   7         0.00000000
   8        -0.00098919
   9        -0.81046237
  10        -0.00000000
  11         0.00111915
  12         0.91694053
  13         0.00000000
  14         0.00000000
  15        -0.00000004
  16        -0.00002942
  17        -0.00000000
  18        -0.00000000
  19        -0.00000000
  20         0.00000022
  21         0.00017696
  22         0.00000000
  23         0.00000000
  24        -0.00000000
  25         0.00000000
  26         0.00000252
  27        -0.00000000
  28         0.00000000
  29         0.00000000
  30        -0.00000000
  31         0.00000000
  32         0.00000000
  33        -0.00000000
  34        -0.00000000
  35         0.00012194
  36         0.09990703
  37        -0.00000000
  38        -0.00098919
  39        -0.81046237
  40         0.00000000
  41         0.00111915
  42         0.91694053
  43        -0.00000000
  44        -0.00000000
  45         0.00000004
  46         0.00002942
  47         0.00000000
  48         0.00000000
  49        -0.00000000
  50        -0.00000022
  51        -0.00017696
  52        -0.00000000
  53        -0.00000000
  54         0.00000000
  55         0.00000000
  56         0.00000252
  57         0.00000000
  58         0.00000000
  59         0.00000000
  60        -0.00000000
Sym=    13a  
Ene=     4.0078
Spin= Alpha
Occup=    0.00000
   1        -0.00000000
   2         0.00000000
   3        -0.00000000
   4         0.00000000
   5         0.09990703
   6        -0.00012194
   7         0.00000000
   8        -0.81046237
   9         0.00098919
  10        -0.00000000
  11         0.91694053
  12        -0.00111915
  13         0.00000000
  14        -0.00000000
  15        -0.00002942
  16         0.00000004
  17        -0.00000000
  18         0.00000000
  19         0.00000000
  20         0.00017696
  21        -0.00000022
  22        -0.00000000
  23        -0.00000000
  24        -0.00000000
  25         0.00000252
  26        -0.00000000
  27        -0.00000000
  28         0.00000000
  29         0.00000000
  30         0.00000000
  31         0.00000000
  32         0.00000000
  33        -0.00000000
  34        -0.00000000
  35         0.09990703
  36        -0.00012194
  37        -0.00000000
  38        -0.81046237
  39         0.00098919
  40         0.00000000
  41         0.91694053
  42        -0.00111915
  43        -0.00000000
  44        -0.00000000
  45         0.00002942
  46        -0.00000004
  47         0.00000000
  48         0.00000000
  49         0.00000000
  50        -0.00017696
  51         0.00000022
  52        -0.00000000
  53        -0.00000000
  54        -0.00000000
  55         0.00000252
  56        -0.00000000
  57         0.00000000
  58        -0.00000000
  59         0.00000000
  60         0.00000000
Sym=    14a  
Ene=     4.0103
Spin= Alpha
Occup=    0.00000
   1         0.00000000
   2         0.00000000
   3        -0.00000000
   4        -0.00000000
   5         0.00002846
   6        -0.09971002
   7        -0.00000000
   8        -0.00023140
   9         0.81063481
  10         0.00000000
  11         0.00026199
  12        -0.91780056
  13        -0.00000000
  14        -0.00000000
  15         0.00000001
  16        -0.00002956
  17        -0.00000000
  18        -0.00000000
  19         0.00000000
  20        -0.00000005
  21         0.00017803
  22         0.00000000
  23         0.00000000
  24        -0.00000000
  25        -0.00000000
  26         0.00000253
  27         0.00000000
  28        -0.00000000
  29         0.00000000
  30         0.00000000
  31        -0.00000000
  32        -0.00000000
  33         0.00000000
  34         0.00000000
  35        -0.00002846
  36         0.09971002
  37        -0.00000000
  38         0.00023140
  39        -0.81063481
  40         0.00000000
  41        -0.00026199
  42         0.91780056
  43        -0.00000000
  44         0.00000000
  45         0.00000001
  46        -0.00002956
  47         0.00000000
  48         0.00000000
  49        -0.00000000
  50        -0.00000005
  51         0.00017803
  52         0.00000000
  53        -0.00000000
  54         0.00000000
  55         0.00000000
  56        -0.00000253
  57         0.00000000
  58         0.00000000
  59         0.00000000
  60        -0.00000000
Sym=    15a  
Ene=     4.0103
Spin= Alpha
Occup=    0.00000
   1        -0.00000000
   2         0.00000000
   3         0.00000000
   4         0.00000000
   5        -0.09971002
   6        -0.00002846
   7        -0.00000000
   8         0.81063481
   9         0.00023140
  10        -0.00000000
  11        -0.91780056
  12        -0.00026199
  13         0.00000000
  14        -0.00000000
  15        -0.00002956
  16        -0.00000001
  17         0.00000000
  18        -0.00000000
  19         0.00000000
  20         0.00017803
  21         0.00000005
  22        -0.00000000
  23         0.00000000
  24         0.00000000
  25         0.00000253
  26         0.00000000
  27         0.00000000
  28         0.00000000
  29        -0.00000000
  30        -0.00000000
  31        -0.00000000
  32        -0.00000000
  33        -0.00000000
  34         0.00000000
  35         0.09971002
  36         0.00002846
  37         0.00000000
  38        -0.81063481
  39        -0.00023140
  40        -0.00000000
  41         0.91780056
  42         0.00026199
  43         0.00000000
  44        -0.00000000
  45        -0.00002956
  46        -0.00000001
  47         0.00000000
  48        -0.00000000
  49         0.00000000
  50         0.00017803
  51         0.00000005
  52        -0.00000000
  53         0.00000000
  54         0.00000000
  55        -0.00000253
  56        -0.00000000
  57        -0.00000000
  58         0.00000000
  59         0.00000000
  60        -0.00000000
Sym=    16a  
Ene=     4.0244
Spin= Alpha
Occup=    0.00000
   1         0.01049117
   2         0.03812902
   3        -0.00866908
   4        -0.03524622
   5         0.00000000
   6        -0.00000000
   7         0.09862380
   8        -0.00000000
   9         0.00000000
  10        -0.81183289
  11         0.00000000
  12        -0.00000000
  13         0.92331541
  14         0.00032229
  15         0.00000000
  16        -0.00000000
  17        -0.00000000
  18         0.00000000
  19        -0.00196041
  20        -0.00000000
  21        -0.00000000
  22         0.00000000
  23        -0.00000000
  24        -0.00002223
  25        -0.00000000
  26        -0.00000000
  27         0.00000000
  28        -0.00000000
  29        -0.00000000
  30         0.00000000
  31        -0.01049117
  32        -0.03812902
  33         0.00866908
  34         0.03524622
  35        -0.00000000
  36         0.00000000
  37         0.09862380
  38         0.00000000
  39        -0.00000000
  40        -0.81183289
  41        -0.00000000
  42         0.00000000
  43         0.92331541
  44        -0.00032229
  45        -0.00000000
  46         0.00000000
  47        -0.00000000
  48        -0.00000000
  49         0.00196041
  50         0.00000000
  51        -0.00000000
  52         0.00000000
  53         0.00000000
  54        -0.00002223
  55        -0.00000000
  56        -0.00000000
  57        -0.00000000
  58         0.00000000
  59         0.00000000
  60         0.00000000
Sym=    17a  
Ene=     4.3935
Spin= Alpha
Occup=    0.00000
   1        -0.63415137
   2        -2.32558449
   3         0.50080140
   4         2.21142689
   5         0.00000000
   6         0.00000000
   7        -0.00094866
   8        -0.00000000
   9        -0.00000000
  10         0.01315391
  11         0.00000000
  12         0.00000000
  13        -0.01661578
  14        -0.00019804
  15         0.00000000
  16        -0.00000000
  17         0.00000000
  18        -0.00000000
  19         0.00144456
  20        -0.00000000
  21         0.00000000
  22        -0.00000000
  23         0.00000000
  24         0.00000484
  25         0.00000000
  26        -0.00000000
  27        -0.00000000
  28         0.00000000
  29         0.00000000
  30        -0.00000000
  31        -0.63415137
  32        -2.32558449
  33         0.50080140
  34         2.21142689
  35        -0.00000000
  36        -0.00000000
  37         0.00094866
  38         0.00000000
  39        -0.00000000
  40        -0.01315391
  41        -0.00000000
  42         0.00000000
  43         0.01661578
  44        -0.00019804
  45        -0.00000000
  46         0.00000000
  47         0.00000000
  48         0.00000000
  49         0.00144456
  50         0.00000000
  51        -0.00000000
  52        -0.00000000
  53        -0.00000000
  54        -0.00000484
  55         0.00000000
  56        -0.00000000
  57         0.00000000
  58         0.00000000
  59        -0.00000000
  60        -0.00000000
Sym=    18a  
Ene=     4.3983
Spin= Alpha
Occup=    0.00000
   1        -0.63444146
   2        -2.32696515
   3         0.50075702
   4         2.21338642
   5        -0.00000000
   6        -0.00000000
   7         0.00103025
   8         0.00000000
   9         0.00000000
  10        -0.01441933
  11        -0.00000000
  12        -0.00000000
  13         0.01824921
  14         0.00023782
  15         0.00000000
  16        -0.00000000
  17         0.00000000
  18         0.00000000
  19        -0.00174044
  20        -0.00000000
  21         0.00000000
  22        -0.00000000
  23        -0.00000000
  24        -0.00000588
  25         0.00000000
  26        -0.00000000
  27         0.00000000
  28         0.00000000
  29        -0.00000000
  30         0.00000000
  31         0.63444146
  32         2.32696515
  33        -0.50075702
  34        -2.21338642
  35        -0.00000000
  36         0.00000000
  37         0.00103025
  38        -0.00000000
  39        -0.00000000
  40        -0.01441933
  41         0.00000000
  42         0.00000000
  43         0.01824921
  44        -0.00023782
  45        -0.00000000
  46         0.00000000
  47        -0.00000000
  48        -0.00000000
  49         0.00174044
  50         0.00000000
  51        -0.00000000
  52         0.00000000
  53         0.00000000
  54        -0.00000588
  55        -0.00000000
  56         0.00000000
  57        -0.00000000
  58        -0.00000000
  59        -0.00000000
  60         0.00000000
Sym=    19a  
Ene=     4.5800
Spin= Alpha
Occup=    0.00000
   1        -0.00000000
   2        -0.00000000
   3         0.00000000
   4         0.00000000
   5         0.00000893
   6         0.00000000
   7         0.00000000
   8        -0.00020241