[Molden Format]
[N_Atoms]
                    2
[Atoms] (AU)
N1          1      7           0.00000000      0.00000000      0.00000000
N2          2      7           0.00000000      0.00000000      9.44863062
[5D]
[7F]
[Charge] (Mulliken)
   5.3886353157395206E-009
  -5.3887676543240559E-009
[GTO] (AU)
   1
   s  10
  1.142000000E+04  5.229996559E-04
  1.712000000E+03  4.044997339E-03
  3.893000000E+02  2.077498633E-02
  1.100000000E+02  8.072694689E-02
  3.557000000E+01  2.330738467E-01
  1.254000000E+01  4.335007148E-01
  4.644000000E+00  3.474717714E-01
  1.293000000E+00  4.126197285E-02
  5.118000000E-01 -8.507994403E-03
  1.787000000E-01  2.383998432E-03
   s  10
  1.142000000E+04 -1.149999544E-04
  1.712000000E+03 -8.949996452E-04
  3.893000000E+02 -4.623998167E-03
  1.100000000E+02 -1.852799265E-02
  3.557000000E+01 -5.733897727E-02
  1.254000000E+01 -1.320759476E-01
  4.644000000E+00 -1.725099316E-01
  1.293000000E+00  1.518139398E-01
  5.118000000E-01  5.999437621E-01
  1.787000000E-01  3.874618464E-01
   s   1
  1.293000000E+00  1.000000000E+00
   s   1
  1.787000000E-01  1.000000000E+00
   p   5
  2.663000000E+01  1.467000345E-02
  5.948000000E+00  9.176402155E-02
  1.742000000E+00  2.986830701E-01
  5.550000000E-01  4.984871171E-01
  1.725000000E-01  3.370230791E-01
   p   1
  5.550000000E-01  1.000000000E+00
   p   1
  1.725000000E-01  1.000000000E+00
   d   1
  1.654000000E+00  1.000000000E+00
   d   1
  4.690000000E-01  1.000000000E+00
   f   1
  1.093000000E+00  1.000000000E+00
 
   2
   s  10
  1.142000000E+04  5.229996559E-04
  1.712000000E+03  4.044997339E-03
  3.893000000E+02  2.077498633E-02
  1.100000000E+02  8.072694689E-02
  3.557000000E+01  2.330738467E-01
  1.254000000E+01  4.335007148E-01
  4.644000000E+00  3.474717714E-01
  1.293000000E+00  4.126197285E-02
  5.118000000E-01 -8.507994403E-03
  1.787000000E-01  2.383998432E-03
   s  10
  1.142000000E+04 -1.149999544E-04
  1.712000000E+03 -8.949996452E-04
  3.893000000E+02 -4.623998167E-03
  1.100000000E+02 -1.852799265E-02
  3.557000000E+01 -5.733897727E-02
  1.254000000E+01 -1.320759476E-01
  4.644000000E+00 -1.725099316E-01
  1.293000000E+00  1.518139398E-01
  5.118000000E-01  5.999437621E-01
  1.787000000E-01  3.874618464E-01
   s   1
  1.293000000E+00  1.000000000E+00
   s   1
  1.787000000E-01  1.000000000E+00
   p   5
  2.663000000E+01  1.467000345E-02
  5.948000000E+00  9.176402155E-02
  1.742000000E+00  2.986830701E-01
  5.550000000E-01  4.984871171E-01
  1.725000000E-01  3.370230791E-01
   p   1
  5.550000000E-01  1.000000000E+00
   p   1
  1.725000000E-01  1.000000000E+00
   d   1
  1.654000000E+00  1.000000000E+00
   d   1
  4.690000000E-01  1.000000000E+00
   f   1
  1.093000000E+00  1.000000000E+00
 
[MO]
Sym=     1a  
Ene=     0.0000
Spin= Alpha
Occup=    0.00000
   1         0.46221286
   2         0.00015950
   3        -0.00061828
   4        -0.00007208
   5        -0.00000000
   6         0.00000000
   7         0.00011539
   8         0.00000000
   9        -0.00000000
  10        -0.00006559
  11        -0.00000000
  12        -0.00000000
  13        -0.00002342
  14        -0.00000119
  15         0.00000000
  16         0.00000000
  17        -0.00000000
  18         0.00000000
  19         0.00000177
  20        -0.00000000
  21         0.00000000
  22        -0.00000000
  23        -0.00000000
  24         0.00000022
  25        -0.00000000
  26        -0.00000000
  27         0.00000000
  28         0.00000000
  29        -0.00000000
  30         0.00000000
  31         0.88763534
  32         0.00032611
  33        -0.00119645
  34        -0.00016445
  35        -0.00000000
  36         0.00000000
  37        -0.00019948
  38         0.00000000
  39        -0.00000000
  40         0.00013166
  41        -0.00000000
  42        -0.00000000
  43         0.00004770
  44        -0.00000248
  45         0.00000000
  46         0.00000000
  47         0.00000000
  48         0.00000000
  49         0.00000063
  50        -0.00000000
  51         0.00000000
  52         0.00000000
  53        -0.00000000
  54        -0.00000020
  55         0.00000000
  56         0.00000000
  57        -0.00000000
  58         0.00000000
  59         0.00000000
  60         0.00000000
Sym=     2a  
Ene=     0.0000
Spin= Alpha
Occup=    0.00000
   1        -0.88763010
   2        -0.00031086
   3         0.00118729
   4         0.00016318
   5        -0.00000000
   6        -0.00000000
   7        -0.00018297
   8         0.00000000
   9         0.00000000
  10         0.00013587
  11        -0.00000000
  12         0.00000000
  13         0.00004969
  14         0.00000204
  15        -0.00000000
  16        -0.00000000
  17         0.00000000
  18         0.00000000
  19         0.00000167
  20        -0.00000000
  21        -0.00000000
  22         0.00000000
  23        -0.00000000
  24        -0.00000003
  25         0.00000000
  26         0.00000000
  27        -0.00000000
  28         0.00000000
  29        -0.00000000
  30         0.00000000
  31         0.46221973
  32         0.00017217
  33        -0.00062300
  34        -0.00009852
  35        -0.00000000
  36         0.00000000
  37        -0.00008376
  38         0.00000000
  39        -0.00000000
  40         0.00007374
  41        -0.00000000
  42        -0.00000000
  43         0.00002728
  44        -0.00000116
  45         0.00000000
  46         0.00000000
  47         0.00000000
  48         0.00000000
  49        -0.00000231
  50        -0.00000000
  51         0.00000000
  52         0.00000000
  53        -0.00000000
  54         0.00000010
  55         0.00000000
  56         0.00000000
  57        -0.00000000
  58         0.00000000
  59        -0.00000000
  60         0.00000000
Sym=     3a  
Ene=     0.0000
Spin= Alpha
Occup=    0.00000
   1         0.00111333
   2         0.72805176
   3         0.00756563
   4        -0.02949011
   5        -0.00000000
   6         0.00000000
   7         0.00163965
   8         0.00000000
   9         0.00000000
  10        -0.00021500
  11        -0.00000000
  12        -0.00000000
  13         0.00144798
  14        -0.00002272
  15         0.00000000
  16         0.00000000
  17        -0.00000000
  18         0.00000000
  19         0.00019322
  20        -0.00000000
  21         0.00000000
  22        -0.00000000
  23        -0.00000000
  24         0.00000889
  25        -0.00000000
  26         0.00000000
  27         0.00000000
  28         0.00000000
  29         0.00000000
  30        -0.00000000
  31         0.00112243
  32         0.72887666
  33         0.00756421
  34        -0.02954026
  35        -0.00000000
  36        -0.00000000
  37        -0.00163210
  38         0.00000000
  39         0.00000000
  40         0.00021443
  41        -0.00000000
  42        -0.00000000
  43        -0.00144715
  44        -0.00002308
  45        -0.00000000
  46         0.00000000
  47         0.00000000
  48         0.00000000
  49         0.00019318
  50         0.00000000
  51        -0.00000000
  52         0.00000000
  53        -0.00000000
  54        -0.00000888
  55        -0.00000000
  56        -0.00000000
  57        -0.00000000
  58         0.00000000
  59        -0.00000000
  60        -0.00000000
Sym=     4a  
Ene=     0.0000
Spin= Alpha
Occup=    0.00000
   1        -0.00178801
   2        -0.73186020
   3        -0.00730152
   4         0.03268315
   5         0.00000000
   6        -0.00000000
   7         0.00687588
   8         0.00000000
   9        -0.00000000
  10        -0.00046150
  11         0.00000000
  12         0.00000000
  13         0.00074629
  14         0.00000415
  15         0.00000000
  16        -0.00000000
  17         0.00000000
  18         0.00000000
  19         0.00018756
  20        -0.00000000
  21        -0.00000000
  22         0.00000000
  23         0.00000000
  24         0.00000632
  25        -0.00000000
  26         0.00000000
  27        -0.00000000
  28        -0.00000000
  29        -0.00000000
  30        -0.00000000
  31         0.00179395
  32         0.73107680
  33         0.00728367
  34        -0.03266489
  35        -0.00000000
  36        -0.00000000
  37         0.00687771
  38         0.00000000
  39         0.00000000
  40        -0.00046171
  41        -0.00000000
  42        -0.00000000
  43         0.00074794
  44        -0.00000448
  45         0.00000000
  46         0.00000000
  47         0.00000000
  48        -0.00000000
  49        -0.00018760
  50        -0.00000000
  51         0.00000000
  52         0.00000000
  53         0.00000000
  54         0.00000634
  55         0.00000000
  56        -0.00000000
  57        -0.00000000
  58         0.00000000
  59        -0.00000000
  60        -0.00000000
Sym=     5a  
Ene=     0.0000
Spin= Alpha
Occup=    0.00000
   1         0.00262152
   2         0.01502952
   3        -0.00084737
   4        -0.01306318
   5        -0.00000000
   6         0.00000002
   7        -0.64496410
   8         0.00000000
   9        -0.00000000
  10         0.01999846
  11        -0.00000000
  12         0.00000000
  13        -0.10287800
  14        -0.00005601
  15        -0.00000000
  16         0.00000000
  17        -0.00000000
  18         0.00000000
  19        -0.00288120
  20        -0.00000000
  21         0.00000000
  22         0.00000000
  23        -0.00000000
  24        -0.00009537
  25         0.00000000
  26        -0.00000000
  27        -0.00000000
  28        -0.00000000
  29         0.00000000
  30         0.00000000
  31         0.00262183
  32         0.01503025
  33        -0.00084774
  34        -0.01306391
  35        -0.00000000
  36         0.00000002
  37         0.64496107
  38         0.00000000
  39        -0.00000000
  40        -0.01999290
  41        -0.00000000
  42         0.00000000
  43         0.10288285
  44        -0.00005604
  45         0.00000000
  46        -0.00000000
  47        -0.00000000
  48         0.00000000
  49        -0.00288120
  50         0.00000000
  51        -0.00000000
  52         0.00000000
  53        -0.00000000
  54         0.00009526
  55        -0.00000000
  56         0.00000000
  57        -0.00000000
  58         0.00000000
  59         0.00000000
  60         0.00000000
Sym=     6a  
Ene=     0.0000
Spin= Alpha
Occup=    0.00000
   1        -0.00000000
   2        -0.00000000
   3         0.00000000
   4         0.00000000
   5        -0.00002079
   6         0.64760109
   7         0.00000002
   8         0.00000057
   9        -0.01770709
  10        -0.00000000
  11        -0.00000313
  12         0.09759889
  13         0.00000000
  14         0.00000000
  15        -0.00000000
  16         0.00008949
  17        -0.00000000
  18        -0.00000000
  19         0.00000000
  20        -0.00000007
  21         0.00214469
  22        -0.00000000
  23         0.00000000
  24         0.00000000
  25        -0.00000000
  26         0.00006911
  27        -0.00000000
  28        -0.00000000
  29        -0.00000000
  30         0.00000000
  31        -0.00000000
  32        -0.00000000
  33         0.00000000
  34         0.00000000
  35        -0.00002079
  36         0.64759989
  37        -0.00000002
  38         0.00000057
  39        -0.01771084
  40         0.00000000
  41        -0.00000313
  42         0.09759844
  43        -0.00000000
  44         0.00000000
  45         0.00000000
  46        -0.00008951
  47        -0.00000000
  48         0.00000000
  49         0.00000000
  50         0.00000007
  51        -0.00214473
  52         0.00000000
  53        -0.00000000
  54        -0.00000000
  55        -0.00000000
  56         0.00006911
  57        -0.00000000
  58        -0.00000000
  59        -0.00000000
  60        -0.00000001
Sym=     7a  
Ene=     0.0000
Spin= Alpha
Occup=    0.00000
   1         0.00000000
   2         0.00000000
   3        -0.00000000
   4        -0.00000000
   5         0.64760000
   6         0.00002079
   7        -0.00000000
   8        -0.01770706
   9        -0.00000057
  10         0.00000000
  11         0.09759878
  12         0.00000313
  13        -0.00000000
  14        -0.00000000
  15         0.00008948
  16         0.00000000
  17        -0.00000000
  18         0.00000000
  19        -0.00000000
  20         0.00214469
  21         0.00000007
  22        -0.00000000
  23         0.00000000
  24         0.00000000
  25         0.00006911
  26         0.00000000
  27        -0.00000000
  28         0.00000000
  29         0.00000000
  30         0.00000000
  31         0.00000000
  32         0.00000000
  33        -0.00000000
  34        -0.00000000
  35         0.64760098
  36         0.00002079
  37         0.00000000
  38        -0.01771087
  39        -0.00000057
  40        -0.00000000
  41         0.09759854
  42         0.00000313
  43         0.00000000
  44        -0.00000000
  45        -0.00008951
  46        -0.00000000
  47         0.00000000
  48         0.00000000
  49        -0.00000000
  50        -0.00214473
  51        -0.00000007
  52        -0.00000000
  53        -0.00000000
  54         0.00000000
  55         0.00006911
  56         0.00000000
  57        -0.00000000
  58         0.00000000
  59         0.00000001
  60        -0.00000000
Sym=     8a  
Ene=     0.0000
Spin= Alpha
Occup=    0.00000
   1         0.00000000
   2         0.00000000
   3        -0.00000000
   4        -0.00000000
   5         0.00000872
   6        -0.64740829
   7         0.00000001
   8        -0.00000024
   9         0.01771158
  10        -0.00000000
  11         0.00000132
  12        -0.09791810
  13         0.00000000
  14         0.00000000
  15         0.00000000
  16        -0.00011625
  17        -0.00000000
  18         0.00000000
  19        -0.00000000
  20        -0.00000002
  21         0.00171457
  22         0.00000000
  23         0.00000000
  24        -0.00000000
  25        -0.00000000
  26         0.00004749
  27        -0.00000000
  28         0.00000000
  29        -0.00000000
  30         0.00000007
  31        -0.00000000
  32        -0.00000000
  33         0.00000000
  34         0.00000000
  35        -0.00000872
  36         0.64741859
  37         0.00000001
  38         0.00000024
  39        -0.01771543
  40        -0.00000000
  41        -0.00000132
  42         0.09791615
  43         0.00000000
  44        -0.00000000
  45         0.00000000
  46        -0.00011626
  47        -0.00000000
  48        -0.00000000
  49         0.00000000
  50        -0.00000002
  51         0.00171459
  52        -0.00000000
  53        -0.00000000
  54         0.00000000
  55         0.00000000
  56        -0.00004746
  57         0.00000000
  58        -0.00000000
  59        -0.00000000
  60         0.00000007
Sym=     9a  
Ene=     0.0000
Spin= Alpha
Occup=    0.00000
   1        -0.00000000
   2        -0.00000000
   3         0.00000000
   4         0.00000000
   5        -0.64741118
   6        -0.00000872
   7        -0.00000000
   8         0.01771155
   9         0.00000024
  10         0.00000000
  11        -0.09791594
  12        -0.00000132
  13         0.00000000
  14        -0.00000000
  15        -0.00011625
  16        -0.00000000
  17         0.00000000
  18         0.00000000
  19         0.00000000
  20         0.00171458
  21         0.00000002
  22         0.00000000
  23        -0.00000000
  24        -0.00000000
  25         0.00004745
  26         0.00000000
  27         0.00000000
  28         0.00000000
  29         0.00000007
  30         0.00000000
  31         0.00000000
  32         0.00000000
  33        -0.00000000
  34        -0.00000000
  35         0.64741571
  36         0.00000872
  37        -0.00000000
  38        -0.01771547
  39        -0.00000024
  40         0.00000000
  41         0.09791832
  42         0.00000132
  43        -0.00000000
  44         0.00000000
  45        -0.00011626
  46        -0.00000000
  47        -0.00000000
  48         0.00000000
  49        -0.00000000
  50         0.00171459
  51         0.00000002
  52        -0.00000000
  53         0.00000000
  54         0.00000000
  55        -0.00004750
  56        -0.00000000
  57        -0.00000000
  58        -0.00000000
  59         0.00000009
  60         0.00000000
Sym=    10a  
Ene=     0.0000
Spin= Alpha
Occup=    0.00000
   1         0.00175647
   2         0.01494103
   3        -0.00081762
   4        -0.00805868
   5        -0.00000000
   6         0.00000001
   7         0.64817494
   8         0.00000000
   9        -0.00000000
  10        -0.01605629
  11        -0.00000000
  12         0.00000000
  13         0.09554846
  14         0.00018115
  15        -0.00000000
  16         0.00000000
  17        -0.00000000
  18         0.00000000
  19        -0.00226829
  20         0.00000000
  21        -0.00000000
  22         0.00000000
  23        -0.00000000
  24        -0.00006714
  25        -0.00000000
  26        -0.00000000
  27        -0.00000006
  28         0.00000000
  29        -0.00000000
  30        -0.00000000
  31        -0.00175680
  32        -0.01494205
  33         0.00081795
  34         0.00805965
  35         0.00000000
  36        -0.00000001
  37         0.64816093
  38        -0.00000000
  39         0.00000000
  40        -0.01605051
  41        -0.00000000
  42        -0.00000000
  43         0.09555148
  44        -0.00018114
  45        -0.00000000
  46         0.00000000
  47        -0.00000000
  48         0.00000000
  49         0.00226836
  50         0.00000000
  51        -0.00000000
  52         0.00000000
  53        -0.00000000
  54        -0.00006728
  55        -0.00000000
  56        -0.00000000
  57         0.00000006
  58        -0.00000000
  59         0.00000000
  60        -0.00000000
Sym=    11a  
Ene=     0.0000
Spin= Alpha
Occup=    0.00000
   1         0.02675631
   2         0.12853162
   3        -0.00859150
   4        -0.13615827
   5         0.00000000
   6        -0.00000000
   7         0.49449498
   8         0.00000000
   9        -0.00000000
  10         0.35093418
  11        -0.00000000
  12         0.00000000
  13        -1.00729809
  14         0.00024020
  15        -0.00000000
  16        -0.00000000
  17        -0.00000001
  18         0.00000000
  19        -0.00143849
  20         0.00000000
  21         0.00000000
  22         0.00000002
  23        -0.00000000
  24        -0.00002248
  25        -0.00000000
  26        -0.00000000
  27        -0.00000004
  28         0.00000000
  29        -0.00000000
  30         0.00000000
  31         0.02677039
  32         0.12859391
  33        -0.00859811
  34        -0.13622329
  35        -0.00000000
  36        -0.00000000
  37        -0.49446800
  38        -0.00000000
  39        -0.00000000
  40        -0.35092450
  41         0.00000000
  42         0.00000000
  43         1.00725123
  44         0.00024015
  45        -0.00000000
  46        -0.00000000
  47         0.00000001
  48        -0.00000000
  49        -0.00143863
  50         0.00000000
  51         0.00000000
  52        -0.00000002
  53         0.00000000
  54         0.00002259
  55         0.00000000
  56         0.00000000
  57        -0.00000004
  58         0.00000000
  59         0.00000000
  60        -0.00000000
Sym=    12a  
Ene=     0.0000
Spin= Alpha
Occup=    0.00000
   1        -0.00000000
   2        -0.00000000
   3         0.00000000
   4         0.00000000
   5         0.00000029
   6        -0.49680182
   7        -0.00000000
   8         0.00000020
   9        -0.34863603
  10        -0.00000000
  11        -0.00000059
  12         1.01553943
  13         0.00000000
  14        -0.00000000
  15         0.00000000
  16        -0.00009295
  17        -0.00000000
  18         0.00000000
  19         0.00000000
  20         0.00000000
  21        -0.00002487
  22        -0.00000000
  23         0.00000000
  24        -0.00000000
  25         0.00000000
  26        -0.00000144
  27        -0.00000000
  28         0.00000000
  29        -0.00000000
  30         0.00000003
  31        -0.00000000
  32        -0.00000000
  33         0.00000000
  34         0.00000000
  35         0.00000029
  36        -0.49747245
  37         0.00000000
  38         0.00000020
  39        -0.34909971
  40         0.00000000
  41        -0.00000059
  42         1.01690414
  43        -0.00000000
  44        -0.00000000
  45        -0.00000000
  46         0.00009304
  47         0.00000000
  48         0.00000000
  49         0.00000000
  50        -0.00000000
  51         0.00002539
  52         0.00000000
  53        -0.00000000
  54        -0.00000000
  55         0.00000000
  56        -0.00000155
  57        -0.00000000
  58         0.00000000
  59         0.00000000
  60        -0.00000005
Sym=    13a  
Ene=     0.0000
Spin= Alpha
Occup=    0.00000
   1         0.00000000
   2         0.00000000
   3        -0.00000000
   4        -0.00000000
   5        -0.49686695
   6        -0.00000029
   7        -0.00000000
   8        -0.34868165
   9        -0.00000020
  10        -0.00000000
  11         1.01567439
  12         0.00000059
  13         0.00000000
  14         0.00000000
  15        -0.00009296
  16        -0.00000000
  17         0.00000000
  18         0.00000000
  19        -0.00000000
  20        -0.00002493
  21        -0.00000000
  22         0.00000000
  23         0.00000000
  24        -0.00000000
  25        -0.00000146
  26        -0.00000000
  27         0.00000000
  28         0.00000000
  29         0.00000006
  30         0.00000000
  31        -0.00000000
  32        -0.00000000
  33         0.00000000
  34         0.00000000
  35        -0.49740740
  36        -0.00000029
  37        -0.00000000
  38        -0.34905415
  39        -0.00000020
  40        -0.00000000
  41         1.01676934
  42         0.00000059
  43         0.00000000
  44        -0.00000000
  45         0.00009303
  46         0.00000000
  47         0.00000000
  48        -0.00000000
  49         0.00000000
  50         0.00002533
  51         0.00000000
  52        -0.00000000
  53        -0.00000000
  54        -0.00000000
  55        -0.00000152
  56        -0.00000000
  57         0.00000000
  58         0.00000000
  59        -0.00000005
  60        -0.00000000
Sym=    14a  
Ene=     0.0000
Spin= Alpha
Occup=    0.00000
   1        -0.00000000
   2        -0.00000000
   3         0.00000000
   4         0.00000000
   5         0.49848799
   6        -0.00000111
   7        -0.00000000
   8         0.34845593
   9        -0.00000078
  10        -0.00000000
  11        -1.01758297
  12         0.00000227
  13         0.00000000
  14        -0.00000000
  15         0.00005966
  16        -0.00000000
  17        -0.00000000
  18        -0.00000000
  19         0.00000000
  20         0.00037471
  21        -0.00000000
  22        -0.00000000
  23        -0.00000000
  24         0.00000000
  25         0.00000959
  26        -0.00000000
  27        -0.00000000
  28        -0.00000000
  29        -0.00000006
  30         0.00000000
  31        -0.00000000
  32        -0.00000000
  33         0.00000000
  34         0.00000000
  35        -0.49795588
  36         0.00000111
  37         0.00000000
  38        -0.34807801
  39         0.00000078
  40         0.00000000
  41         1.01648938
  42        -0.00000227
  43        -0.00000000
  44        -0.00000000
  45         0.00005956
  46        -0.00000000
  47         0.00000000
  48        -0.00000000
  49         0.00000000
  50         0.00037469
  51        -0.00000000
  52        -0.00000000
  53        -0.00000000
  54        -0.00000000
  55        -0.00000965
  56         0.00000000
  57         0.00000000
  58         0.00000000
  59        -0.00000005
  60         0.00000000
Sym=    15a  
Ene=     0.0000
Spin= Alpha
Occup=    0.00000
   1         0.00000000
   2         0.00000000
   3        -0.00000000
   4        -0.00000000
   5         0.00000111
   6         0.49855313
   7        -0.00000000
   8         0.00000078
   9         0.34850260
  10        -0.00000000
  11        -0.00000227
  12        -1.01771726
  13         0.00000000
  14         0.00000000
  15         0.00000000
  16         0.00005967
  17         0.00000000
  18        -0.00000000
  19        -0.00000000
  20         0.00000000
  21         0.00037472
  22         0.00000000
  23        -0.00000000
  24         0.00000000
  25         0.00000000
  26         0.00000956
  27         0.00000000
  28        -0.00000000
  29        -0.00000000
  30        -0.00000003
  31        -0.00000000
  32        -0.00000000
  33         0.00000000
  34         0.00000000
  35        -0.00000111
  36        -0.49789067
  37        -0.00000000
  38        -0.00000078
  39        -0.34803130
  40        -0.00000000
  41         0.00000227
  42         1.01635493
  43         0.00000000
  44         0.00000000
  45         0.00000000
  46         0.00005955
  47         0.00000000
  48         0.00000000
  49         0.00000000
  50         0.00000000
  51         0.00037468
  52         0.00000000
  53        -0.00000000
  54        -0.00000000
  55        -0.00000000
  56        -0.00000967
  57        -0.00000000
  58         0.00000000
  59        -0.00000000
  60        -0.00000005
Sym=    16a  
Ene=     0.0000
Spin= Alpha
Occup=    0.00000
   1         0.04823057
   2         0.23156362
   3        -0.01460231
   4        -0.24819663
   5         0.00000000
   6        -0.00000000
   7        -0.49694383
   8         0.00000000
   9        -0.00000000
  10        -0.34235917
  11        -0.00000000
  12         0.00000000
  13         1.01303777
  14         0.00006481
  15        -0.00000000
  16        -0.00000000
  17        -0.00000001
  18        -0.00000000
  19        -0.00185123
  20         0.00000000
  21         0.00000000
  22         0.00000003
  23        -0.00000000
  24        -0.00003237
  25         0.00000000
  26         0.00000000
  27         0.00000004
  28        -0.00000000
  29         0.00000000
  30         0.00000000
  31        -0.04826966
  32        -0.23174219
  33         0.01461815
  34         0.24838509
  35         0.00000000
  36         0.00000000
  37        -0.49696608
  38         0.00000000
  39         0.00000000
  40        -0.34238546
  41        -0.00000000
  42        -0.00000000
  43         1.01309344
  44        -0.00006467
  45         0.00000000
  46         0.00000000
  47        -0.00000001
  48         0.00000000
  49         0.00185146
  50        -0.00000000
  51        -0.00000000
  52         0.00000003
  53        -0.00000000
  54        -0.00003234
  55         0.00000000
  56         0.00000000
  57        -0.00000004
  58         0.00000000
  59         0.00000000
  60         0.00000000
Sym=    17a  
Ene=     0.0000
Spin= Alpha
Occup=    0.00000
   1        -0.35251131
   2        -1.71016701
   3         0.09881041
   4         1.84161794
   5        -0.00000000
   6         0.00000000
   7         0.03483380
   8        -0.00000000
   9         0.00000000
  10         0.02491792
  11         0.00000000
  12        -0.00000000
  13        -0.07823671
  14        -0.00003546
  15         0.00000000
  16         0.00000000
  17         0.00000009
  18        -0.00000000
  19         0.00089385
  20        -0.00000000
  21        -0.00000000
  22        -0.00000025
  23         0.00000000
  24         0.00001164
  25        -0.00000000
  26        -0.00000000
  27        -0.00000000
  28         0.00000000
  29        -0.00000000
  30        -0.00000000
  31        -0.35422326
  32        -1.71839519
  33         0.09932174
  34         1.85046136
  35        -0.00000000
  36        -0.00000000
  37        -0.03445776
  38        -0.00000000
  39         0.00000000
  40        -0.02466720
  41         0.00000000
  42        -0.00000000
  43         0.07745780
  44        -0.00003416
  45         0.00000000
  46         0.00000000
  47        -0.00000009
  48         0.00000000
  49         0.00088961
  50        -0.00000000
  51        -0.00000000
  52         0.00000025
  53        -0.00000000
  54        -0.00001157
  55         0.00000000
  56         0.00000000
  57        -0.00000000
  58        -0.00000000
  59        -0.00000000
  60         0.00000000
Sym=    18a  
Ene=     0.0000
Spin= Alpha
Occup=    0.00000
   1        -0.35142361
   2        -1.70583921
   3         0.09752454
   4         1.83933988
   5         0.00000000
   6        -0.00000000
   7        -0.06742118
   8         0.00000000
   9        -0.00000000
  10        -0.04491718
  11        -0.00000000
  12         0.00000000
  13         0.14013140
  14         0.00006447
  15         0.00000000
  16         0.00000000
  17         0.00000009
  18        -0.00000000
  19        -0.00114917
  20        -0.00000000
  21        -0.00000000
  22        -0.00000026
  23         0.00000000
  24        -0.00001723
  25         0.00000000
  26         0.00000000
  27         0.00000000
  28         0.00000000
  29         0.00000000
  30         0.00000000
  31         0.34975359
  32         1.69765639
  33        -0.09709226
  34        -1.83049965
  35         0.00000000
  36         0.00000000
  37        -0.06757388
  38         0.00000000
  39         0.00000000
  40        -0.04502775
  41        -0.00000000
  42        -0.00000000
  43         0.14047826
  44        -0.00006563
  45        -0.00000000
  46        -0.00000000
  47         0.00000009
  48        -0.00000000
  49         0.00115210
  50         0.00000000
  51         0.00000000
  52        -0.00000025
  53         0.00000000
  54        -0.00001728
  55         0.00000000
  56         0.00000000
  57        -0.00000001
  58         0.00000000
  59         0.00000000
  60         0.00000000
Sym=    19a  
Ene=     0.0000
Spin= Alpha
Occup=    0.00000
   1         0.00043123
   2         0.00216968
   3        -0.00001084
   4        -0.00262838
   5        -0.00000000
   6         0.00000000
   7        -0.00072899
   8         0.00000000