[Molden Format]
[N_Atoms]
                    2
[Atoms] (AU)
N1          1      7           0.00000000      0.00000000      0.00000000
N2          2      7           0.00000000      0.00000000      5.29123315
[5D]
[7F]
[Charge] (Mulliken)
   0.0000000000000000     
   0.0000000000000000     
[GTO] (AU)
   1
   s  10
  1.142000000E+04  5.229996559E-04
  1.712000000E+03  4.044997339E-03
  3.893000000E+02  2.077498633E-02
  1.100000000E+02  8.072694689E-02
  3.557000000E+01  2.330738467E-01
  1.254000000E+01  4.335007148E-01
  4.644000000E+00  3.474717714E-01
  1.293000000E+00  4.126197285E-02
  5.118000000E-01 -8.507994403E-03
  1.787000000E-01  2.383998432E-03
   s  10
  1.142000000E+04 -1.149999544E-04
  1.712000000E+03 -8.949996452E-04
  3.893000000E+02 -4.623998167E-03
  1.100000000E+02 -1.852799265E-02
  3.557000000E+01 -5.733897727E-02
  1.254000000E+01 -1.320759476E-01
  4.644000000E+00 -1.725099316E-01
  1.293000000E+00  1.518139398E-01
  5.118000000E-01  5.999437621E-01
  1.787000000E-01  3.874618464E-01
   s   1
  1.293000000E+00  1.000000000E+00
   s   1
  1.787000000E-01  1.000000000E+00
   p   5
  2.663000000E+01  1.467000345E-02
  5.948000000E+00  9.176402155E-02
  1.742000000E+00  2.986830701E-01
  5.550000000E-01  4.984871171E-01
  1.725000000E-01  3.370230791E-01
   p   1
  5.550000000E-01  1.000000000E+00
   p   1
  1.725000000E-01  1.000000000E+00
   d   1
  1.654000000E+00  1.000000000E+00
   d   1
  4.690000000E-01  1.000000000E+00
   f   1
  1.093000000E+00  1.000000000E+00
 
   2
   s  10
  1.142000000E+04  5.229996559E-04
  1.712000000E+03  4.044997339E-03
  3.893000000E+02  2.077498633E-02
  1.100000000E+02  8.072694689E-02
  3.557000000E+01  2.330738467E-01
  1.254000000E+01  4.335007148E-01
  4.644000000E+00  3.474717714E-01
  1.293000000E+00  4.126197285E-02
  5.118000000E-01 -8.507994403E-03
  1.787000000E-01  2.383998432E-03
   s  10
  1.142000000E+04 -1.149999544E-04
  1.712000000E+03 -8.949996452E-04
  3.893000000E+02 -4.623998167E-03
  1.100000000E+02 -1.852799265E-02
  3.557000000E+01 -5.733897727E-02
  1.254000000E+01 -1.320759476E-01
  4.644000000E+00 -1.725099316E-01
  1.293000000E+00  1.518139398E-01
  5.118000000E-01  5.999437621E-01
  1.787000000E-01  3.874618464E-01
   s   1
  1.293000000E+00  1.000000000E+00
   s   1
  1.787000000E-01  1.000000000E+00
   p   5
  2.663000000E+01  1.467000345E-02
  5.948000000E+00  9.176402155E-02
  1.742000000E+00  2.986830701E-01
  5.550000000E-01  4.984871171E-01
  1.725000000E-01  3.370230791E-01
   p   1
  5.550000000E-01  1.000000000E+00
   p   1
  1.725000000E-01  1.000000000E+00
   d   1
  1.654000000E+00  1.000000000E+00
   d   1
  4.690000000E-01  1.000000000E+00
   f   1
  1.093000000E+00  1.000000000E+00
 
[MO]
Sym=     1a  
Ene=   -15.6340
Spin= Alpha
Occup=    2.00000
   1         0.70767834
   2         0.00346282
   3        -0.00165243
   4         0.00194512
   5        -0.00000000
   6        -0.00000000
   7         0.00006893
   8        -0.00000000
   9         0.00000000
  10        -0.00000120
  11        -0.00000000
  12         0.00000000
  13        -0.00000321
  14         0.00000000
  15        -0.00000000
  16         0.00000000
  17        -0.00000000
  18        -0.00000000
  19        -0.00000000
  20         0.00000000
  21        -0.00000000
  22        -0.00000000
  23         0.00000000
  24        -0.00000000
  25        -0.00000000
  26        -0.00000000
  27         0.00000000
  28         0.00000000
  29         0.00000000
  30        -0.00000000
  31         0.70767834
  32         0.00346282
  33        -0.00165243
  34         0.00194512
  35        -0.00000000
  36        -0.00000000
  37        -0.00006893
  38         0.00000000
  39         0.00000000
  40         0.00000120
  41         0.00000000
  42        -0.00000000
  43         0.00000321
  44        -0.00000000
  45         0.00000000
  46         0.00000000
  47         0.00000000
  48         0.00000000
  49         0.00000000
  50        -0.00000000
  51        -0.00000000
  52         0.00000000
  53        -0.00000000
  54        -0.00000000
  55         0.00000000
  56         0.00000000
  57         0.00000000
  58         0.00000000
  59        -0.00000000
  60         0.00000000
Sym=     2a  
Ene=   -15.6340
Spin= Alpha
Occup=    2.00000
   1        -0.70769451
   2        -0.00339129
   3         0.00165319
   4        -0.00194475
   5        -0.00000000
   6        -0.00000000
   7         0.00006843
   8         0.00000000
   9         0.00000000
  10        -0.00000120
  11         0.00000000
  12         0.00000000
  13        -0.00000319
  14         0.00000000
  15         0.00000000
  16         0.00000000
  17        -0.00000000
  18        -0.00000000
  19        -0.00000000
  20         0.00000000
  21        -0.00000000
  22         0.00000000
  23         0.00000000
  24        -0.00000000
  25        -0.00000000
  26        -0.00000000
  27         0.00000000
  28        -0.00000000
  29         0.00000000
  30         0.00000000
  31         0.70769451
  32         0.00339129
  33        -0.00165319
  34         0.00194475
  35         0.00000000
  36        -0.00000000
  37         0.00006843
  38         0.00000000
  39         0.00000000
  40        -0.00000120
  41        -0.00000000
  42         0.00000000
  43        -0.00000319
  44        -0.00000000
  45         0.00000000
  46        -0.00000000
  47        -0.00000000
  48        -0.00000000
  49         0.00000000
  50        -0.00000000
  51        -0.00000000
  52         0.00000000
  53         0.00000000
  54        -0.00000000
  55         0.00000000
  56         0.00000000
  57         0.00000000
  58         0.00000000
  59         0.00000000
  60         0.00000000
Sym=     3a  
Ene=    -0.9695
Spin= Alpha
Occup=    2.00000
   1        -0.00916035
   2         0.68710909
   3         0.00690813
   4         0.00396630
   5        -0.00000000
   6        -0.00000000
   7         0.05231442
   8         0.00000000
   9         0.00000000
  10        -0.00091354
  11         0.00000000
  12         0.00000000
  13        -0.00243510
  14        -0.00000000
  15        -0.00000000
  16        -0.00000000
  17        -0.00000000
  18        -0.00000000
  19         0.00000000
  20        -0.00000000
  21         0.00000000
  22        -0.00000000
  23        -0.00000000
  24         0.00000000
  25         0.00000000
  26         0.00000000
  27        -0.00000000
  28         0.00000000
  29        -0.00000000
  30         0.00000000
  31        -0.00916035
  32         0.68710909
  33         0.00690813
  34         0.00396630
  35        -0.00000000
  36        -0.00000000
  37        -0.05231442
  38         0.00000000
  39         0.00000000
  40         0.00091354
  41         0.00000000
  42         0.00000000
  43         0.00243510
  44         0.00000000
  45         0.00000000
  46        -0.00000000
  47        -0.00000000
  48        -0.00000000
  49        -0.00000000
  50        -0.00000000
  51        -0.00000000
  52         0.00000000
  53        -0.00000000
  54        -0.00000000
  55        -0.00000000
  56        -0.00000000
  57        -0.00000000
  58         0.00000000
  59         0.00000000
  60         0.00000000
Sym=     4a  
Ene=    -0.9269
Spin= Alpha
Occup=    2.00000
   1         0.00815517
   2        -0.70327099
   3        -0.00706771
   4        -0.00406291
   5         0.00000000
   6         0.00000000
   7         0.04825930
   8        -0.00000000
   9        -0.00000000
  10        -0.00084272
  11         0.00000000
  12        -0.00000000
  13        -0.00224634
  14        -0.00000000
  15         0.00000000
  16        -0.00000000
  17         0.00000000
  18        -0.00000000
  19         0.00000000
  20         0.00000000
  21         0.00000000
  22         0.00000000
  23         0.00000000
  24         0.00000000
  25        -0.00000000
  26         0.00000000
  27         0.00000000
  28         0.00000000
  29        -0.00000000
  30        -0.00000000
  31        -0.00815517
  32         0.70327099
  33         0.00706771
  34         0.00406291
  35        -0.00000000
  36         0.00000000
  37         0.04825930
  38        -0.00000000
  39         0.00000000
  40        -0.00084272
  41        -0.00000000
  42         0.00000000
  43        -0.00224634
  44        -0.00000000
  45         0.00000000
  46        -0.00000000
  47         0.00000000
  48         0.00000000
  49         0.00000000
  50        -0.00000000
  51         0.00000000
  52        -0.00000000
  53        -0.00000000
  54         0.00000000
  55         0.00000000
  56         0.00000000
  57         0.00000000
  58        -0.00000000
  59        -0.00000000
  60        -0.00000000
Sym=     5a  
Ene=    -0.6085
Spin= Alpha
Occup=    2.00000
   1         0.00068177
   2         0.07971970
   3         0.00079734
   4         0.00046492
   5        -0.00000000
   6        -0.00000000
   7        -0.71849305
   8         0.00000000
   9         0.00000000
  10         0.01254662
  11        -0.00000000
  12         0.00000000
  13         0.03344394
  14        -0.00000000
  15         0.00000000
  16        -0.00000000
  17        -0.00000000
  18         0.00000000
  19        -0.00000000
  20        -0.00000000
  21         0.00000000
  22         0.00000000
  23        -0.00000000
  24        -0.00000000
  25        -0.00000000
  26        -0.00000000
  27         0.00000000
  28         0.00000000
  29         0.00000000
  30        -0.00000000
  31         0.00068177
  32         0.07971970
  33         0.00079734
  34         0.00046492
  35         0.00000000
  36        -0.00000000
  37         0.71849305
  38         0.00000000
  39         0.00000000
  40        -0.01254662
  41         0.00000000
  42         0.00000000
  43        -0.03344394
  44         0.00000000
  45        -0.00000000
  46         0.00000000
  47        -0.00000000
  48        -0.00000000
  49         0.00000000
  50         0.00000000
  51        -0.00000000
  52         0.00000000
  53        -0.00000000
  54        -0.00000000
  55        -0.00000000
  56         0.00000000
  57         0.00000000
  58         0.00000000
  59        -0.00000000
  60        -0.00000000
Sym=     6a  
Ene=    -0.5788
Spin= Alpha
Occup=    2.00000
   1         0.00000000
   2         0.00000000
   3        -0.00000000
   4        -0.00000000
   5         0.73978581
   6         0.00623308
   7         0.00000000
   8        -0.01291844
   9        -0.00010884
  10        -0.00000000
  11        -0.03443506
  12        -0.00029013
  13        -0.00000000
  14        -0.00000000
  15        -0.00000000
  16        -0.00000000
  17         0.00000000
  18         0.00000000
  19         0.00000000
  20         0.00000000
  21        -0.00000000
  22         0.00000000
  23         0.00000000
  24         0.00000000
  25        -0.00000000
  26         0.00000000
  27         0.00000000
  28        -0.00000000
  29        -0.00000000
  30        -0.00000000
  31         0.00000000
  32         0.00000000
  33        -0.00000000
  34        -0.00000000
  35         0.73978581
  36         0.00623308
  37        -0.00000000
  38        -0.01291844
  39        -0.00010884
  40         0.00000000
  41        -0.03443506
  42        -0.00029013
  43         0.00000000
  44         0.00000000
  45         0.00000000
  46        -0.00000000
  47         0.00000000
  48         0.00000000
  49        -0.00000000
  50        -0.00000000
  51         0.00000000
  52         0.00000000
  53         0.00000000
  54        -0.00000000
  55         0.00000000
  56        -0.00000000
  57        -0.00000000
  58        -0.00000000
  59        -0.00000000
  60        -0.00000000
Sym=     7a  
Ene=    -0.5788
Spin= Alpha
Occup=    2.00000
   1         0.00000000
   2         0.00000000
   3        -0.00000000
   4        -0.00000000
   5        -0.00623308
   6         0.73978581
   7        -0.00000000
   8         0.00010884
   9        -0.01291844
  10        -0.00000000
  11         0.00029013
  12        -0.03443506
  13         0.00000000
  14         0.00000000
  15        -0.00000000
  16        -0.00000000
  17        -0.00000000
  18        -0.00000000
  19        -0.00000000
  20        -0.00000000
  21         0.00000000
  22         0.00000000
  23         0.00000000
  24         0.00000000
  25         0.00000000
  26         0.00000000
  27         0.00000000
  28        -0.00000000
  29         0.00000000
  30         0.00000000
  31        -0.00000000
  32        -0.00000000
  33         0.00000000
  34         0.00000000
  35        -0.00623308
  36         0.73978581
  37        -0.00000000
  38         0.00010884
  39        -0.01291844
  40         0.00000000
  41         0.00029013
  42        -0.03443506
  43         0.00000000
  44        -0.00000000
  45         0.00000000
  46         0.00000000
  47         0.00000000
  48         0.00000000
  49         0.00000000
  50         0.00000000
  51        -0.00000000
  52         0.00000000
  53        -0.00000000
  54        -0.00000000
  55        -0.00000000
  56         0.00000000
  57         0.00000000
  58         0.00000000
  59         0.00000000
  60         0.00000000
Sym=     8a  
Ene=    -0.5624
Spin= Alpha
Occup=    0.00000
   1         0.00000000
   2         0.00000000
   3        -0.00000000
   4        -0.00000000
   5        -0.44832810
   6        -0.60184320
   7         0.00000000
   8         0.00782889
   9         0.01050963
  10        -0.00000000
  11         0.02086848
  12         0.02801420
  13        -0.00000000
  14        -0.00000000
  15         0.00000000
  16        -0.00000000
  17        -0.00000000
  18        -0.00000000
  19         0.00000000
  20         0.00000000
  21         0.00000000
  22        -0.00000000
  23        -0.00000000
  24        -0.00000000
  25         0.00000000
  26        -0.00000000
  27        -0.00000000
  28         0.00000000
  29        -0.00000000
  30        -0.00000000
  31        -0.00000000
  32        -0.00000000
  33         0.00000000
  34         0.00000000
  35         0.44832810
  36         0.60184320
  37        -0.00000000
  38        -0.00782889
  39        -0.01050963
  40        -0.00000000
  41        -0.02086848
  42        -0.02801420
  43        -0.00000000
  44        -0.00000000
  45        -0.00000000
  46         0.00000000
  47        -0.00000000
  48         0.00000000
  49         0.00000000
  50         0.00000000
  51        -0.00000000
  52         0.00000000
  53        -0.00000000
  54        -0.00000000
  55         0.00000000
  56         0.00000000
  57        -0.00000000
  58         0.00000000
  59         0.00000000
  60        -0.00000000
Sym=     9a  
Ene=    -0.5624
Spin= Alpha
Occup=    0.00000
   1        -0.00000000
   2        -0.00000000
   3         0.00000000
   4         0.00000000
   5        -0.60184320
   6         0.44832810
   7        -0.00000000
   8         0.01050963
   9        -0.00782889
  10         0.00000000
  11         0.02801420
  12        -0.02086848
  13         0.00000000
  14         0.00000000
  15         0.00000000
  16         0.00000000
  17         0.00000000
  18         0.00000000
  19        -0.00000000
  20         0.00000000
  21        -0.00000000
  22         0.00000000
  23         0.00000000
  24         0.00000000
  25         0.00000000
  26        -0.00000000
  27         0.00000000
  28        -0.00000000
  29        -0.00000000
  30         0.00000000
  31         0.00000000
  32         0.00000000
  33         0.00000000
  34        -0.00000000
  35         0.60184320
  36        -0.44832810
  37        -0.00000000
  38        -0.01050963
  39         0.00782889
  40         0.00000000
  41        -0.02801420
  42         0.02086848
  43         0.00000000
  44         0.00000000
  45        -0.00000000
  46        -0.00000000
  47         0.00000000
  48        -0.00000000
  49        -0.00000000
  50         0.00000000
  51         0.00000000
  52         0.00000000
  53         0.00000000
  54        -0.00000000
  55         0.00000000
  56         0.00000000
  57         0.00000000
  58        -0.00000000
  59         0.00000000
  60        -0.00000000
Sym=    10a  
Ene=    -0.5270
Spin= Alpha
Occup=    0.00000
   1         0.00096356
   2         0.07727060
   3         0.00077212
   4         0.00045146
   5        -0.00000000
   6         0.00000000
   7         0.77267648
   8         0.00000000
   9         0.00000000
  10        -0.01349279
  11         0.00000000
  12        -0.00000000
  13        -0.03596603
  14        -0.00000000
  15        -0.00000000
  16         0.00000000
  17        -0.00000000
  18        -0.00000000
  19        -0.00000000
  20         0.00000000
  21         0.00000000
  22         0.00000000
  23         0.00000000
  24        -0.00000000
  25        -0.00000000
  26         0.00000000
  27         0.00000000
  28        -0.00000000
  29        -0.00000000
  30         0.00000000
  31        -0.00096356
  32        -0.07727060
  33        -0.00077212
  34        -0.00045146
  35         0.00000000
  36        -0.00000000
  37         0.77267648
  38        -0.00000000
  39         0.00000000
  40        -0.01349279
  41        -0.00000000
  42         0.00000000
  43        -0.03596603
  44        -0.00000000
  45        -0.00000000
  46         0.00000000
  47        -0.00000000
  48        -0.00000000
  49        -0.00000000
  50         0.00000000
  51         0.00000000
  52        -0.00000000
  53         0.00000000
  54        -0.00000000
  55         0.00000000
  56         0.00000000
  57        -0.00000000
  58         0.00000000
  59         0.00000000
  60         0.00000000
Sym=    11a  
Ene=     3.9780
Spin= Alpha
Occup=    0.00000
   1         0.00000000
   2         0.00000000
   3        -0.00000000
   4        -0.00000000
   5        -0.00069511
   6         0.09787319
   7         0.00000000
   8         0.00564109
   9        -0.79428421
  10        -0.00000000
  11        -0.00609567
  12         0.85829098
  13         0.00000000
  14        -0.00000000
  15         0.00004938
  16        -0.00695255
  17         0.00000000
  18         0.00000000
  19         0.00000000
  20        -0.00032374
  21         0.04558372
  22        -0.00000000
  23        -0.00000000
  24         0.00000000
  25        -0.00000858
  26         0.00120873
  27        -0.00000000
  28         0.00000000
  29        -0.00000000
  30        -0.00000000
  31        -0.00000000
  32        -0.00000000
  33         0.00000000
  34         0.00000000
  35        -0.00069511
  36         0.09787319
  37         0.00000000
  38         0.00564109
  39        -0.79428421
  40        -0.00000000
  41        -0.00609567
  42         0.85829098
  43         0.00000000
  44        -0.00000000
  45        -0.00004938
  46         0.00695255
  47         0.00000000
  48        -0.00000000
  49         0.00000000
  50         0.00032374
  51        -0.04558372
  52        -0.00000000
  53         0.00000000
  54        -0.00000000
  55        -0.00000858
  56         0.00120873
  57        -0.00000000
  58        -0.00000000
  59        -0.00000000
  60        -0.00000000
Sym=    12a  
Ene=     3.9780
Spin= Alpha
Occup=    0.00000
   1         0.00000000
   2         0.00000000
   3        -0.00000000
   4        -0.00000000
   5         0.09787319
   6         0.00069511
   7        -0.00000000
   8        -0.79428421
   9        -0.00564109
  10         0.00000000
  11         0.85829098
  12         0.00609567
  13        -0.00000000
  14         0.00000000
  15        -0.00695255
  16        -0.00004938
  17         0.00000000
  18         0.00000000
  19         0.00000000
  20         0.04558372
  21         0.00032374
  22         0.00000000
  23        -0.00000000
  24        -0.00000000
  25         0.00120873
  26         0.00000858
  27         0.00000000
  28         0.00000000
  29         0.00000000
  30         0.00000000
  31        -0.00000000
  32         0.00000000
  33        -0.00000000
  34        -0.00000000
  35         0.09787319
  36         0.00069511
  37         0.00000000
  38        -0.79428421
  39        -0.00564109
  40         0.00000000
  41         0.85829098
  42         0.00609567
  43        -0.00000000
  44         0.00000000
  45         0.00695255
  46         0.00004938
  47         0.00000000
  48         0.00000000
  49        -0.00000000
  50        -0.04558372
  51        -0.00032374
  52        -0.00000000
  53        -0.00000000
  54         0.00000000
  55         0.00120873
  56         0.00000858
  57         0.00000000
  58         0.00000000
  59         0.00000000
  60        -0.00000000
Sym=    13a  
Ene=     4.0304
Spin= Alpha
Occup=    0.00000
   1         0.12259833
   2         0.45638973
   3        -0.12838678
   4        -0.27362507
   5         0.00000000
   6         0.00000000
   7         0.10790489
   8        -0.00000000
   9        -0.00000000
  10        -0.81281780
  11         0.00000000
  12         0.00000000
  13         1.13253263
  14         0.00949566
  15        -0.00000000
  16         0.00000000
  17         0.00000000
  18         0.00000000
  19        -0.07285739
  20        -0.00000000
  21        -0.00000000
  22        -0.00000000
  23        -0.00000000
  24         0.00001130
  25         0.00000000
  26         0.00000000
  27        -0.00000000
  28        -0.00000000
  29         0.00000000
  30        -0.00000000
  31        -0.12259833
  32        -0.45638973
  33         0.12838678
  34         0.27362507
  35        -0.00000000
  36        -0.00000000
  37         0.10790489
  38         0.00000000
  39         0.00000000
  40        -0.81281780
  41        -0.00000000
  42        -0.00000000
  43         1.13253263
  44        -0.00949566
  45        -0.00000000
  46         0.00000000
  47        -0.00000000
  48        -0.00000000
  49         0.07285739
  50        -0.00000000
  51        -0.00000000
  52         0.00000000
  53         0.00000000
  54         0.00001130
  55        -0.00000000
  56         0.00000000
  57        -0.00000000
  58         0.00000000
  59        -0.00000000
  60        -0.00000000
Sym=    14a  
Ene=     4.0498
Spin= Alpha
Occup=    0.00000
   1         0.00000000
   2         0.00000000
   3        -0.00000000
   4        -0.00000000
   5         0.00123727
   6        -0.10027960
   7         0.00000000
   8        -0.01013806
   9         0.82167887
  10        -0.00000000
  11         0.01203546
  12        -0.97546116
  13         0.00000000
  14         0.00000000
  15         0.00011085
  16        -0.00898393
  17        -0.00000000
  18         0.00000000
  19        -0.00000000
  20        -0.00074426
  21         0.06032153
  22         0.00000000
  23         0.00000000
  24        -0.00000000
  25        -0.00001699
  26         0.00137718
  27         0.00000000
  28        -0.00000000
  29        -0.00000000
  30         0.00000000
  31        -0.00000000
  32        -0.00000000
  33         0.00000000
  34         0.00000000
  35        -0.00123727
  36         0.10027960
  37         0.00000000
  38         0.01013806
  39        -0.82167887
  40        -0.00000000
  41        -0.01203546
  42         0.97546116
  43         0.00000000
  44        -0.00000000
  45         0.00011085
  46        -0.00898393
  47         0.00000000
  48        -0.00000000
  49         0.00000000
  50        -0.00074426
  51         0.06032153
  52         0.00000000
  53         0.00000000
  54         0.00000000
  55         0.00001699
  56        -0.00137718
  57         0.00000000
  58        -0.00000000
  59         0.00000000
  60        -0.00000000
Sym=    15a  
Ene=     4.0498
Spin= Alpha
Occup=    0.00000
   1         0.00000000
   2         0.00000000
   3        -0.00000000
   4        -0.00000000
   5        -0.10027960
   6        -0.00123727
   7         0.00000000
   8         0.82167887
   9         0.01013806
  10        -0.00000000
  11        -0.97546116
  12        -0.01203546
  13         0.00000000
  14         0.00000000
  15        -0.00898393
  16        -0.00011085
  17         0.00000000
  18         0.00000000
  19        -0.00000000
  20         0.06032153
  21         0.00074426
  22         0.00000000
  23         0.00000000
  24        -0.00000000
  25         0.00137718
  26         0.00001699
  27         0.00000000
  28        -0.00000000
  29        -0.00000000
  30        -0.00000000
  31        -0.00000000
  32        -0.00000000
  33         0.00000000
  34        -0.00000000
  35         0.10027960
  36         0.00123727
  37         0.00000000
  38        -0.82167887
  39        -0.01013806
  40         0.00000000
  41         0.97546116
  42         0.01203546
  43        -0.00000000
  44        -0.00000000
  45        -0.00898393
  46        -0.00011085
  47         0.00000000
  48         0.00000000
  49         0.00000000
  50         0.06032153
  51         0.00074426
  52        -0.00000000
  53         0.00000000
  54         0.00000000
  55        -0.00137718
  56        -0.00001699
  57         0.00000000
  58        -0.00000000
  59         0.00000000
  60        -0.00000000
Sym=    16a  
Ene=     4.1198
Spin= Alpha
Occup=    0.00000
   1        -0.03621088
   2        -0.12545975
   3         0.00977256
   4         0.22239196
   5        -0.00000000
   6        -0.00000000
   7        -0.08867074
   8         0.00000000
   9         0.00000000
  10         0.81709767
  11        -0.00000000
  12        -0.00000000
  13        -0.80347485
  14        -0.00001074
  15         0.00000000
  16        -0.00000000
  17         0.00000000
  18        -0.00000000
  19        -0.01109565
  20         0.00000000
  21         0.00000000
  22        -0.00000000
  23        -0.00000000
  24         0.00054954
  25        -0.00000000
  26        -0.00000000
  27        -0.00000000
  28        -0.00000000
  29        -0.00000000
  30         0.00000000
  31        -0.03621088
  32        -0.12545975
  33         0.00977256
  34         0.22239196
  35         0.00000000
  36        -0.00000000
  37         0.08867074
  38        -0.00000000
  39        -0.00000000
  40        -0.81709767
  41         0.00000000
  42         0.00000000
  43         0.80347485
  44        -0.00001074
  45         0.00000000
  46        -0.00000000
  47        -0.00000000
  48        -0.00000000
  49        -0.01109565
  50         0.00000000
  51         0.00000000
  52         0.00000000
  53         0.00000000
  54        -0.00054954
  55         0.00000000
  56        -0.00000000
  57        -0.00000000
  58        -0.00000000
  59         0.00000000
  60        -0.00000000
Sym=    17a  
Ene=     4.3464
Spin= Alpha
Occup=    0.00000
   1        -0.58613459
   2        -2.15163877
   3         0.47465200
   4         1.99700194
   5         0.00000000
   6         0.00000000
   7        -0.00691692
   8         0.00000000
   9        -0.00000000
  10         0.00816120
  11        -0.00000000
  12        -0.00000000
  13        -0.08249213
  14        -0.02857140
  15        -0.00000000
  16         0.00000000
  17         0.00000000
  18        -0.00000000
  19         0.21457000
  20         0.00000000
  21        -0.00000000
  22        -0.00000000
  23         0.00000000
  24         0.00273535
  25        -0.00000000
  26         0.00000000
  27         0.00000000
  28         0.00000000
  29         0.00000000
  30         0.00000000
  31        -0.58613459
  32        -2.15163877
  33         0.47465200
  34         1.99700194
  35         0.00000000
  36        -0.00000000
  37         0.00691692
  38        -0.00000000
  39         0.00000000
  40        -0.00816120
  41         0.00000000
  42        -0.00000000
  43         0.08249213
  44        -0.02857140
  45        -0.00000000
  46         0.00000000
  47        -0.00000000
  48        -0.00000000
  49         0.21457000
  50         0.00000000
  51        -0.00000000
  52         0.00000000
  53         0.00000000
  54        -0.00273535
  55         0.00000000
  56         0.00000000
  57        -0.00000000
  58         0.00000000
  59         0.00000000
  60        -0.00000000
Sym=    18a  
Ene=     4.4951
Spin= Alpha
Occup=    0.00000
   1        -0.53067654
   2        -1.94644349
   3         0.40123152
   4         1.93107848
   5        -0.00000000
   6         0.00000000
   7         0.00836938
   8         0.00000000
   9        -0.00000000
  10        -0.10627214
  11        -0.00000000
  12         0.00000000
  13         0.24109463
  14         0.05053199
  15        -0.00000000
  16        -0.00000000
  17        -0.00000000
  18        -0.00000000
  19        -0.41045927
  20         0.00000000
  21         0.00000000
  22         0.00000000
  23         0.00000000
  24         0.00008192
  25         0.00000000
  26        -0.00000000
  27         0.00000000
  28         0.00000000
  29         0.00000000
  30        -0.00000000
  31         0.53067654
  32         1.94644349
  33        -0.40123152
  34        -1.93107848
  35        -0.00000000
  36         0.00000000
  37         0.00836938
  38         0.00000000
  39        -0.00000000
  40        -0.10627214
  41        -0.00000000
  42        -0.00000000
  43         0.24109463
  44        -0.05053199
  45         0.00000000
  46         0.00000000
  47        -0.00000000
  48         0.00000000
  49         0.41045927
  50        -0.00000000
  51        -0.00000000
  52         0.00000000
  53        -0.00000000
  54         0.00008192
  55        -0.00000000
  56         0.00000000
  57        -0.00000000
  58        -0.00000000
  59        -0.00000000
  60         0.00000000
Sym=    19a  
Ene=     4.5000
Spin= Alpha
Occup=    0.00000
   1         0.20631689
   2         0.75714924
   3        -0.16308399
   4        -0.71248998
   5        -0.00000000
   6        -0.00000000
   7        -0.01416393
   8         0.00000000