   This run of MOLCAS is using the pymolcas driver

                             OPE
                             OPE          NMOL  CASOP  ENMOLC A   SO
                 OPE        NMOLC        AS  OP EN  MO LC     AS  OP
                OPENM       OL CA        SO  PE NM  OL CA     SOP EN
                OP EN      MO   LC       AS  OP ENMOL  CASO   PENMOL
                OP  EN     MO   LC       AS  OP EN     MO     LC ASO
               OP   E  NMOL  C  AS       OP  EN MO     LC     AS  OP
               OP  E   NMO   LC AS        OPEN  MO     LCASOP EN   M
               O  PEN   MO  LCA  SO
            OPE   NMO   L   CAS    OP
        OPENMOL  CASOP     ENMOL   CASOPE
     OPENMOLCA   SOPENMOLCASOPEN   MOLCASOPE
    OPENMOLCAS   OP           EN   MOL    CAS
    OPENMOLCAS       OP  ENM        O     LCA
    OPENMOLCAS    OPEN  MOLCASO     P  E  NMO
    OPENMOLCAS     OP               E  N  MOL
    OPENMOLCA   SO           PENM   O  L  CAS    OPEN    MO    LCAS
    OPENMOLCA   SOP           ENM   O  L  CAS   OP  EN  MOLC  AS   O
    OPENMOLCA   SOPE           NM      O  LCA   S      OP  EN MO
    OPENMOLC                AS         O  PEN   M      OL  CA  SOPE
    OPENMO        LCASOPE  NMOL        C  ASO   P      ENMOLC     AS
    OPE     NMO      LCA  SO     P     E   NM   OL  CA SO  PE N   MO
          OPENMOLCA            SOPE   NMO        LCAS  O    P  ENMO
     OPENMOLCASOPENMOLCASOPENMOLCASOPENMOLCA
        OPENMOLCASOPENMOLCASOPENMOLCASOPE
            OPENMOLCASOPENMOLCASOPENM
               OPENMOLCASOPENMOLCA        version: o822a959167d23c ?
                   OPENMOLCASO
                       OPE                tag:

 OpenMolcas is free software; you can redistribute it and/or modify it
 under the terms of the GNU Lesser General Public License version 2.1.
 OpenMolcas is distributed in the hope that it will be useful, but it
 is provided "as is" and without any express or implied warranties.
 For more details see the full text of the license in the file
 LICENSE or in <http://www.gnu.org/licenses/>.

                 Copyright (C) The OpenMolcas Authors
           For the author list and the recommended citation,
                   consult the file CONTRIBUTORS.md

           *************************************************
           * pymolcas version py2.28                       *
           *   build c4a6d18ded8cb6cad61d2372a9abd97c      *
           *   (after the EMIL interpreter by V. Veryazov) *
           *************************************************

configuration info
------------------
Host name: mgt (Linux)
C Compiler ID: GNU
C flags: -std=gnu99
Fortran Compiler ID: GNU
Fortran flags: -fno-aggressive-loop-optimizations -cpp -fdefault-integer-8 -fmax-stack-var-size=1048576
Definitions: _MOLCAS_;_I8_;_LINUX_
Parallel: OFF (GA=OFF)


   -------------------------------------------------------------------------------------------------------
  |
  |           Project: n2
  |    Submitted from: /public/home/xzzeng/work/HQC/N2/cc-pvtz/NO/PES/entropy/2.8/results/work_dir/n2/dmrg
  |      Scratch area: /public/home/xzzeng/work/HQC/N2/cc-pvtz/NO/PES/entropy/2.8/results/scratch
  |   Save outputs to: /public/home/xzzeng/work/HQC/N2/cc-pvtz/NO/PES/entropy/2.8/results/work_dir/n2/dmrg
  |            Molcas: /public/home/xzzeng/soft/OpenMolcas/build
  |
  | Scratch area is NOT empty
  |
  |    MOLCAS_DRIVER = /public/home/xzzeng/soft/OpenMolcas/build/pymolcas
  |    MOLCAS_NPROCS = 1
  |    MOLCAS_SOURCE = /public/home/xzzeng/soft/OpenMolcas
  | MOLCAS_STRUCTURE = 0
  |
   -------------------------------------------------------------------------------------------------------

++ ---------   Input file   ---------

&DMRGSCF
ActiveSpaceOptimizer = QCMaquis
DMRGSettings
  nsweeps = 5
  max_bond_dimension = 300
EndDMRGSettings
OOptimizationSettings
  SPIN    = 1
  NACTEL  = 10
  FILEORB = /public/home/xzzeng/work/HQC/N2/cc-pvtz/NO/PES/entropy/2.8/results/work_dir/n2/dmrg/n2.scf.h5_sel
  TYPEINDEX
  CIONLY
EndOOptimizationSettings

-- ----------------------------------

*** symbolic link created: INPORB -> n2.ScfOrb
--- Start Module: dmrgscf at Tue Apr  9 00:42:58 2024 ---

()()()()()()()()()()()()()()()()()()()()()()()()()()()()()()()()()()()()()()()()()()()()()()()()()()

                                              &DMRGSCF

                                   only a single process is used
                       available to each process: 12 GB of memory, 1 thread?
                                             pid: 62374
()()()()()()()()()()()()()()()()()()()()()()()()()()()()()()()()()()()()()()()()()()()()()()()()()()


      DMRGSCF: active space solver is set to qcmaquis
      -------                                --------


      Header of the ONEINT file:
      --------------------------
      
      Integrals generated by Gateway/Seward, Tue Apr  9 00:42:56 2024


      OrdInt status: non-squared


      Cartesian coordinates in Angstrom:
      -----------------------------------------------------
      No.  Label        X            Y            Z        
      -----------------------------------------------------
       1   N1         0.00000000   0.00000000   0.00000000
       2   N2         0.00000000   0.00000000   2.80000000
      -----------------------------------------------------
      Nuclear repulsion energy =    9.26060119

++    Wave function specifications:
      -----------------------------

      Number of closed shell electrons           4
      Number of electrons in active shells      10
      Max number of holes in RAS1 space          0
      Max nr of electrons in RAS3 space          0
      Number of inactive orbitals                2
      Number of active orbitals                  8
      Number of secondary orbitals              50
      Spin quantum number                      0.0
      State symmetry                             1
--

++    Orbital specifications:
      -----------------------

      Symmetry species                           1
                                                 a
      Frozen orbitals                            0
      Inactive orbitals                          2
      Active orbitals                            8
      RAS1 orbitals                              0
      RAS2 orbitals                              8
      RAS3 orbitals                              0
      Secondary orbitals                        50
      Deleted orbitals                           0
      Number of basis functions                 60
--

++    DMRG specifications:
      ----------------------------

      Number of renormalized states              300
      (Max) number of sweeps                     5
      Convergence threshold (sweep tolerance)    0.100E-07
      Jacobi-Davidson threshold                  0.100E-10
      SVD truncation threshold (initial)         1e-50
      SVD truncation threshold (final)           0.100E-10
      Number of root(s) required                 1
      Root chosen for geometry opt.              1
      DMRG root used                             1
         
--

++    Optimization specifications:
      ----------------------------

      RASSCF algorithm: LK Cholesky
      Maximum number of macro iterations       200
      Maximum number of SX iterations          100
      Threshold for RASSCF energy            1.000E-08
      Threshold for max MO rotation          1.000E-01
      Threshold for max BLB element          1.000E-04
      Level shift parameter                  5.000E-01
      Make Quasi-Newton update
--

      The MO-coefficients are taken from the file:
      /public/home/xzzeng/work/HQC/N2/cc-pvtz/NO/PES/entropy/2.8/results/work_dir/n2/dmrg/n2.scf.h5_sel                                                                                                                                                               

      Total molecular charge    0.00

      ************************************************************************************************************************
      *                                                                                                                      *
      *                                            Wave function control section                                             *
      *                                                                                                                      *
      ************************************************************************************************************************


                                         DMRGCI only, no orbital optimization will be done.
                                         --------------------------------------------------

                                             Please cite for the QCMaquis-Molcas driver:

                                    Freitag L.; Keller S.; Knecht S.; Lindh R.; Ma Y.; 
                                    Stein C. J. and Reiher M., in preparation. (2018).
                                    ---------------------------------------------------------------

                                             Please cite for the QCMaquis DMRG software:

                                    S. Keller, M. Dolfi, M. Troyer, M. Reiher,
                                    J. Chem. Phys. 143, 244118 (2015)
                                    ---------------------------------------------------------------



      DMRGCI energy              :    -108.7446191947
      Total time spent (hh:mm:ss):            0:00:04


      Natural orbitals and occupation numbers for root  1
      sym 1:   1.999846   1.999394   1.196694   1.046936   1.046936   0.953155   0.953155   0.803884

      ************************************************************************************************************************
      *                                                                                                                      *
      *                                                    Final results                                                     *
      *                                                                                                                      *
      ************************************************************************************************************************


++    Wave function specifications:
      -----------------------------

      Number of closed shell electrons           4
      Number of electrons in active shells      10
      Max number of holes in RAS1 space          0
      Max nr of electrons in RAS3 space          0
      Number of inactive orbitals                2
      Number of active orbitals                  8
      Number of secondary orbitals              50
      Spin quantum number                      0.0
      State symmetry                             1
--

++    Orbital specifications:
      -----------------------

      Symmetry species                           1
                                                 a
      Frozen orbitals                            0
      Inactive orbitals                          2
      Active orbitals                            8
      RAS1 orbitals                              0
      RAS2 orbitals                              8
      RAS3 orbitals                              0
      Secondary orbitals                        50
      Deleted orbitals                           0
      Number of basis functions                 60
--

++    DMRG specifications:
      ----------------------------

      Number of renormalized states              300
      (Max) number of sweeps                     5
      Convergence threshold (sweep tolerance)    0.100E-07
      Jacobi-Davidson threshold                  0.100E-10
      SVD truncation threshold (initial)         1e-50
      SVD truncation threshold (final)           0.100E-10
      Number of root(s) required                 1
      DMRG root used                             1
      highest root included in the DMRG          1
      Root passed to geometry opt.               1
--

++    Final optimization conditions:
      ------------------------------

      Average CI energy                            -108.74461919
--


      Final state energy(ies):
      ------------------------

::    RASSCF root number  1 Total energy:   -108.74461919

++    Molecular orbitals:
      -------------------

      Pseudonatural active orbitals and approximate occupation numbers




      Molecular orbitals for symmetry species 1: a  


      Orbital                 1         2         3         4         5         6         7         8         9        10
      Energy             0.0000    0.0000    0.0000    0.0000    0.0000    0.0000    0.0000    0.0000    0.0000    0.0000
      Occ. No.           0.0000    0.0000    0.0000    0.0000    0.0000    0.0000    0.0000    0.0000    0.0000    0.0000

     1 N1     1s         0.6688    0.7445    0.0000   -0.0030    0.0086    0.0000   -0.0000   -0.0000    0.0000    0.0056
     2 N1     2s         0.0004   -0.0002    0.7199   -0.7439    0.0812   -0.0000   -0.0000    0.0000    0.0000    0.0994
     3 N1     *s        -0.0011   -0.0010    0.0091   -0.0089   -0.0003   -0.0000    0.0000    0.0000    0.0000   -0.0005
     4 N1     *s        -0.0002    0.0004   -0.0299    0.0434   -0.0391   -0.0000    0.0000    0.0000   -0.0000   -0.0194
     5 N1     2px        0.0000    0.0000   -0.0000    0.0000    0.0000    0.6457    0.0089   -0.6632    0.0050    0.0000
     6 N1     *px       -0.0000    0.0000    0.0000   -0.0000   -0.0000   -0.0197   -0.0003    0.0184   -0.0001   -0.0000
     7 N1     *px        0.0000   -0.0000    0.0000   -0.0000    0.0000    0.0913    0.0013   -0.0899    0.0007    0.0000
     8 N1     2py        0.0000   -0.0000    0.0000    0.0000    0.0000   -0.0089    0.6457    0.0050    0.6632   -0.0000
     9 N1     *py       -0.0000    0.0000    0.0000   -0.0000    0.0000    0.0003   -0.0197   -0.0001   -0.0184    0.0000
    10 N1     *py        0.0000   -0.0000   -0.0000    0.0000   -0.0000   -0.0013    0.0913    0.0007    0.0899   -0.0000
    11 N1     2pz        0.0011    0.0012    0.0027    0.0391   -0.6180    0.0000    0.0000   -0.0000   -0.0000    0.6882
    12 N1     *pz       -0.0008   -0.0010   -0.0005    0.0004    0.0141   -0.0000   -0.0000    0.0000    0.0000   -0.0230
    13 N1     *pz       -0.0003    0.0000    0.0058    0.0001   -0.0825   -0.0000    0.0000   -0.0000   -0.0000    0.1097
    14 N1     *d2-       0.0000    0.0000    0.0000   -0.0000    0.0000   -0.0000   -0.0000    0.0000    0.0000    0.0000
    15 N1     *d2-      -0.0000   -0.0000   -0.0000    0.0000   -0.0000   -0.0000   -0.0000    0.0000    0.0000   -0.0000
    16 N1     *d1-      -0.0000   -0.0000    0.0000    0.0000    0.0000   -0.0000    0.0006    0.0000    0.0006   -0.0000
    17 N1     *d1-       0.0000    0.0000   -0.0000    0.0000    0.0000   -0.0001    0.0081   -0.0001   -0.0083   -0.0000
    18 N1     *d0       -0.0000   -0.0001   -0.0001    0.0003   -0.0014   -0.0000    0.0000    0.0000    0.0000   -0.0003
    19 N1     *d0       -0.0000    0.0001    0.0016    0.0015   -0.0108    0.0000   -0.0000    0.0000    0.0000   -0.0090
    20 N1     *d1+      -0.0000   -0.0000   -0.0000    0.0000    0.0000    0.0006    0.0000   -0.0006    0.0000   -0.0000
    21 N1     *d1+       0.0000    0.0000    0.0000    0.0000   -0.0000    0.0081    0.0001    0.0083   -0.0001    0.0000
    22 N1     *d2+      -0.0000   -0.0000   -0.0000    0.0000    0.0000    0.0000    0.0000   -0.0000    0.0000    0.0000
    23 N1     *d2+      -0.0000   -0.0000   -0.0000    0.0000    0.0000   -0.0000    0.0000    0.0000    0.0000   -0.0000
    24 N1     *f3-      -0.0000   -0.0000   -0.0000    0.0000   -0.0000    0.0000   -0.0000    0.0000    0.0000    0.0000
    25 N1     *f2-      -0.0000    0.0000    0.0000   -0.0000    0.0000    0.0000    0.0000    0.0000   -0.0000    0.0000
    26 N1     *f1-      -0.0000    0.0000   -0.0000   -0.0000   -0.0000   -0.0000    0.0005   -0.0000   -0.0005   -0.0000
    27 N1     *f0       -0.0000    0.0000    0.0002    0.0001   -0.0006   -0.0000   -0.0000   -0.0000    0.0000   -0.0005
    28 N1     *f1+       0.0000    0.0000    0.0000    0.0000   -0.0000    0.0005    0.0000    0.0005   -0.0000   -0.0000
    29 N1     *f2+      -0.0000   -0.0000    0.0000    0.0000   -0.0000    0.0000   -0.0000   -0.0000    0.0000    0.0000
    30 N1     *f3+       0.0000   -0.0000   -0.0000   -0.0000    0.0000    0.0000    0.0000    0.0000   -0.0000   -0.0000
    31 N2     1s         0.7446   -0.6686    0.0000    0.0030    0.0086   -0.0000    0.0000   -0.0000    0.0000   -0.0056
    32 N2     2s         0.0003    0.0002    0.7200    0.7439    0.0812   -0.0000   -0.0000   -0.0000    0.0000   -0.0994
    33 N2     *s        -0.0012    0.0009    0.0091    0.0089   -0.0003   -0.0000   -0.0000   -0.0000    0.0000    0.0005
    34 N2     *s        -0.0002   -0.0004   -0.0299   -0.0434   -0.0391    0.0000   -0.0000    0.0000   -0.0000    0.0194
    35 N2     2px       -0.0000    0.0000   -0.0000   -0.0000    0.0000    0.6457    0.0089    0.6632   -0.0050   -0.0000
    36 N2     *px        0.0000   -0.0000    0.0000    0.0000   -0.0000   -0.0197   -0.0003   -0.0185    0.0001    0.0000
    37 N2     *px        0.0000    0.0000    0.0000    0.0000    0.0000    0.0913    0.0013    0.0899   -0.0007   -0.0000
    38 N2     2py       -0.0000    0.0000   -0.0000    0.0000    0.0000   -0.0089    0.6457   -0.0050   -0.6632   -0.0000
    39 N2     *py        0.0000   -0.0000   -0.0000   -0.0000    0.0000    0.0003   -0.0197    0.0001    0.0185    0.0000
    40 N2     *py       -0.0000   -0.0000    0.0000    0.0000    0.0000   -0.0013    0.0913   -0.0007   -0.0899   -0.0000
    41 N2     2pz       -0.0012    0.0011   -0.0027    0.0391    0.6180   -0.0000   -0.0000    0.0000    0.0000    0.6881
    42 N2     *pz        0.0009   -0.0010    0.0005    0.0004   -0.0141    0.0000    0.0000   -0.0000   -0.0000   -0.0230
    43 N2     *pz        0.0003    0.0000   -0.0058    0.0001    0.0825   -0.0000    0.0000    0.0000    0.0000    0.1097
    44 N2     *d2-      -0.0000    0.0000    0.0000    0.0000    0.0000    0.0000   -0.0000   -0.0000   -0.0000    0.0000
    45 N2     *d2-       0.0000    0.0000   -0.0000   -0.0000   -0.0000   -0.0000   -0.0000   -0.0000   -0.0000   -0.0000
    46 N2     *d1-       0.0000    0.0000   -0.0000   -0.0000   -0.0000    0.0000   -0.0006    0.0000    0.0006   -0.0000
    47 N2     *d1-       0.0000    0.0000    0.0000   -0.0000    0.0000    0.0001   -0.0081   -0.0001   -0.0083    0.0000
    48 N2     *d0       -0.0000    0.0001   -0.0001   -0.0003   -0.0014   -0.0000    0.0000   -0.0000   -0.0000    0.0003
    49 N2     *d0       -0.0000   -0.0001    0.0016   -0.0015   -0.0108   -0.0000    0.0000   -0.0000   -0.0000    0.0090
    50 N2     *d1+       0.0000   -0.0000    0.0000    0.0000   -0.0000   -0.0006   -0.0000   -0.0006    0.0000   -0.0000
    51 N2     *d1+      -0.0000    0.0000   -0.0000   -0.0000   -0.0000   -0.0081   -0.0001    0.0083   -0.0001   -0.0000
    52 N2     *d2+       0.0000   -0.0000    0.0000    0.0000   -0.0000    0.0000    0.0000    0.0000   -0.0000    0.0000
    53 N2     *d2+       0.0000   -0.0000    0.0000    0.0000    0.0000   -0.0000    0.0000   -0.0000   -0.0000   -0.0000
    54 N2     *f3-       0.0000   -0.0000    0.0000   -0.0000    0.0000    0.0000   -0.0000   -0.0000   -0.0000    0.0000
    55 N2     *f2-       0.0000   -0.0000   -0.0000   -0.0000    0.0000    0.0000    0.0000   -0.0000    0.0000   -0.0000
    56 N2     *f1-      -0.0000   -0.0000   -0.0000    0.0000    0.0000   -0.0000    0.0005    0.0000    0.0005   -0.0000
    57 N2     *f0        0.0000    0.0000   -0.0002    0.0001    0.0006   -0.0000   -0.0000    0.0000   -0.0000   -0.0005
    58 N2     *f1+       0.0000   -0.0000    0.0000    0.0000   -0.0000    0.0005    0.0000   -0.0005    0.0000   -0.0000
    59 N2     *f2+      -0.0000    0.0000   -0.0000   -0.0000   -0.0000   -0.0000   -0.0000   -0.0000   -0.0000   -0.0000
    60 N2     *f3+      -0.0000    0.0000    0.0000   -0.0000    0.0000    0.0000    0.0000   -0.0000    0.0000    0.0000


      Orbital                11        12        13        14        15        16        17        18        19        20
      Energy             0.0000    0.0000    0.0000    0.0000    0.0000    0.0000    0.0000    0.0000    0.0000    0.0000
      Occ. No.           0.0000    0.0000    0.0000    0.0000    0.0000    0.0000    0.0000    0.0000    0.0000    0.0000

     1 N1     1s        -0.0000   -0.0000   -0.2701    0.1924   -0.2051    0.0000   -0.0000   -0.2945    0.0320   -0.0000
     2 N1     2s        -0.0000   -0.0000   -1.3658    0.9729   -0.9543    0.0000   -0.0000   -1.3966    0.1572   -0.0000
     3 N1     *s         0.0000    0.0000    0.0720   -0.0506    0.0621   -0.0000    0.0000    0.0605   -0.0050    0.0000
     4 N1     *s         0.0000    0.0000    1.4041   -0.9894    1.0751   -0.0000    0.0000    1.6524   -0.1761    0.0000
     5 N1     2px       -0.5030    0.0035   -0.0000    0.0000    0.0000   -0.0021   -0.4972   -0.0000   -0.0000   -0.0501
     6 N1     *px       -0.3327    0.0023    0.0000    0.0000    0.0000   -0.0015   -0.3511   -0.0000    0.0000   -0.0080
     7 N1     *px        0.9656   -0.0068    0.0000   -0.0000   -0.0000    0.0046    1.0713    0.0000    0.0000    0.0952
     8 N1     2py        0.0035    0.5030   -0.0000    0.0000    0.0000    0.4972   -0.0021   -0.0000   -0.0000   -0.0001
     9 N1     *py        0.0023    0.3327   -0.0000    0.0000    0.0000    0.3511   -0.0015   -0.0000    0.0000   -0.0000
    10 N1     *py       -0.0068   -0.9656    0.0000   -0.0000   -0.0000   -1.0713    0.0046    0.0000   -0.0000    0.0002
    11 N1     2pz        0.0000   -0.0000   -0.3502   -0.3572    0.4617   -0.0000    0.0000   -0.2490    0.0124    0.0000
    12 N1     *pz       -0.0000   -0.0000   -0.1272   -0.3160    0.2610   -0.0000    0.0000   -0.2459    0.0450   -0.0000
    13 N1     *pz        0.0000    0.0000    0.4270    0.9144   -0.8174    0.0000   -0.0000    0.8448   -0.1052    0.0000
    14 N1     *d2-       0.0000    0.0000   -0.0000    0.0000   -0.0000   -0.0000    0.0000   -0.0000    0.0000   -0.0000
    15 N1     *d2-      -0.0000   -0.0000    0.0000   -0.0000    0.0000    0.0000   -0.0000    0.0000   -0.0000    0.0000
    16 N1     *d1-       0.0000    0.0021    0.0000    0.0000   -0.0000   -0.0023    0.0000    0.0000    0.0000    0.0000
    17 N1     *d1-      -0.0002   -0.0331    0.0000   -0.0000    0.0000    0.0483   -0.0002   -0.0000    0.0000   -0.0011
    18 N1     *d0        0.0000    0.0000    0.0006   -0.0035   -0.0035    0.0000    0.0000    0.0056   -0.0209    0.0000
    19 N1     *d0        0.0000    0.0000    0.0402   -0.0091    0.0112   -0.0000    0.0000   -0.2273    0.7022   -0.0000
    20 N1     *d1+      -0.0021    0.0000   -0.0000   -0.0000   -0.0000    0.0000    0.0023    0.0000    0.0000    0.0166
    21 N1     *d1+       0.0331   -0.0002    0.0000    0.0000    0.0000   -0.0002   -0.0483   -0.0000   -0.0000   -0.7094
    22 N1     *d2+      -0.0000    0.0000   -0.0000    0.0000   -0.0000    0.0000   -0.0000   -0.0000    0.0000   -0.0000
    23 N1     *d2+       0.0000   -0.0000    0.0000   -0.0000    0.0000   -0.0000    0.0000    0.0000   -0.0000    0.0000
    24 N1     *f3-       0.0000    0.0000   -0.0000   -0.0000    0.0000   -0.0000    0.0000   -0.0000   -0.0000    0.0000
    25 N1     *f2-       0.0000    0.0000   -0.0000   -0.0000    0.0000   -0.0000    0.0000   -0.0000    0.0000    0.0000
    26 N1     *f1-      -0.0000   -0.0015    0.0000    0.0000    0.0000    0.0016   -0.0000    0.0000   -0.0000   -0.0000
    27 N1     *f0       -0.0000    0.0000    0.0013    0.0004    0.0007   -0.0000   -0.0000   -0.0023    0.0057    0.0000
    28 N1     *f1+       0.0015   -0.0000    0.0000    0.0000    0.0000   -0.0000   -0.0016    0.0000    0.0000   -0.0024
    29 N1     *f2+      -0.0000    0.0000   -0.0000   -0.0000    0.0000    0.0000    0.0000   -0.0000    0.0000   -0.0000
    30 N1     *f3+       0.0000   -0.0000    0.0000    0.0000   -0.0000   -0.0000   -0.0000    0.0000   -0.0000   -0.0000
    31 N2     1s        -0.0000   -0.0000   -0.2703   -0.1921   -0.2051    0.0000   -0.0000    0.2945    0.0320    0.0000
    32 N2     2s        -0.0000   -0.0000   -1.3669   -0.9716   -0.9542    0.0000   -0.0000    1.3965    0.1572    0.0000
    33 N2     *s         0.0000    0.0000    0.0721    0.0506    0.0621   -0.0000    0.0000   -0.0605   -0.0050   -0.0000
    34 N2     *s         0.0000    0.0000    1.4053    0.9880    1.0751   -0.0000    0.0000   -1.6523   -0.1761   -0.0000
    35 N2     2px       -0.5030    0.0035   -0.0000    0.0000   -0.0000    0.0021    0.4972    0.0000   -0.0000   -0.0501
    36 N2     *px       -0.3327    0.0023   -0.0000    0.0000   -0.0000    0.0015    0.3511   -0.0000    0.0000   -0.0080
    37 N2     *px        0.9657   -0.0068    0.0000   -0.0000    0.0000   -0.0046   -1.0713    0.0000    0.0000    0.0952
    38 N2     2py        0.0035    0.5030   -0.0000    0.0000   -0.0000   -0.4972    0.0021   -0.0000   -0.0000   -0.0001
    39 N2     *py        0.0023    0.3327   -0.0000    0.0000   -0.0000   -0.3511    0.0015    0.0000    0.0000   -0.0000
    40 N2     *py       -0.0068   -0.9657    0.0000   -0.0000    0.0000    1.0713   -0.0046   -0.0000    0.0000    0.0002
    41 N2     2pz        0.0000    0.0000    0.3498   -0.3576   -0.4616    0.0000   -0.0000   -0.2490   -0.0124   -0.0000
    42 N2     *pz        0.0000    0.0000    0.1269   -0.3162   -0.2610    0.0000   -0.0000   -0.2459   -0.0450   -0.0000
    43 N2     *pz       -0.0000   -0.0000   -0.4260    0.9150    0.8172   -0.0000    0.0000    0.8448    0.1052    0.0000
    44 N2     *d2-       0.0000   -0.0000    0.0000    0.0000    0.0000   -0.0000   -0.0000   -0.0000   -0.0000    0.0000
    45 N2     *d2-      -0.0000   -0.0000   -0.0000   -0.0000   -0.0000    0.0000    0.0000    0.0000    0.0000   -0.0000
    46 N2     *d1-      -0.0000   -0.0021    0.0000    0.0000   -0.0000   -0.0023    0.0000   -0.0000   -0.0000   -0.0000
    47 N2     *d1-       0.0002    0.0331   -0.0000   -0.0000    0.0000    0.0483   -0.0002   -0.0000    0.0000    0.0011
    48 N2     *d0        0.0000    0.0000    0.0006    0.0035   -0.0035    0.0000    0.0000   -0.0056   -0.0209   -0.0000
    49 N2     *d0       -0.0000    0.0000    0.0402    0.0091    0.0112   -0.0000    0.0000    0.2273    0.7022   -0.0000
    50 N2     *d1+       0.0021   -0.0000   -0.0000    0.0000    0.0000    0.0000    0.0023   -0.0000   -0.0000   -0.0166
    51 N2     *d1+      -0.0331    0.0002    0.0000   -0.0000    0.0000   -0.0002   -0.0483   -0.0000    0.0000    0.7094
    52 N2     *d2+       0.0000    0.0000    0.0000    0.0000    0.0000   -0.0000   -0.0000   -0.0000   -0.0000   -0.0000
    53 N2     *d2+      -0.0000   -0.0000   -0.0000   -0.0000   -0.0000    0.0000    0.0000    0.0000    0.0000    0.0000
    54 N2     *f3-       0.0000    0.0000   -0.0000    0.0000   -0.0000    0.0000   -0.0000    0.0000    0.0000    0.0000
    55 N2     *f2-       0.0000    0.0000   -0.0000    0.0000    0.0000   -0.0000   -0.0000    0.0000    0.0000   -0.0000
    56 N2     *f1-      -0.0000   -0.0015   -0.0000    0.0000   -0.0000   -0.0016    0.0000    0.0000   -0.0000   -0.0000
    57 N2     *f0       -0.0000   -0.0000   -0.0013    0.0004   -0.0007    0.0000   -0.0000   -0.0023   -0.0057   -0.0000
    58 N2     *f1+       0.0015   -0.0000    0.0000    0.0000    0.0000    0.0000    0.0016   -0.0000    0.0000   -0.0024
    59 N2     *f2+      -0.0000    0.0000   -0.0000    0.0000    0.0000   -0.0000   -0.0000    0.0000   -0.0000   -0.0000
    60 N2     *f3+       0.0000   -0.0000   -0.0000   -0.0000    0.0000    0.0000    0.0000   -0.0000   -0.0000   -0.0000


      Orbital                21        22        23        24        25        26        27        28        29        30
      Energy             0.0000    0.0000    0.0000    0.0000    0.0000    0.0000    0.0000    0.0000    0.0000    0.0000
      Occ. No.           0.0000    0.0000    0.0000    0.0000    0.0000    0.0000    0.0000    0.0000    0.0000    0.0000

     1 N1     1s        -0.0000    0.0000    0.0000   -0.0000   -0.0000   -0.0000   -0.0000    0.1087   -0.0000   -0.0000
     2 N1     2s         0.0000    0.0000    0.0000   -0.0000   -0.0000   -0.0000   -0.0000    0.5815   -0.0000    0.0000
     3 N1     *s         0.0000   -0.0000   -0.0000    0.0000    0.0000    0.0000    0.0000    0.0252    0.0000    0.0000
     4 N1     *s        -0.0000   -0.0000   -0.0000    0.0000    0.0000    0.0000    0.0000   -0.7835    0.0000   -0.0000
     5 N1     2px       -0.0001   -0.0000    0.0000   -0.0000   -0.0000   -0.0686    0.0001   -0.0000   -0.0070   -2.4129
     6 N1     *px       -0.0000    0.0000   -0.0000    0.0000    0.0000   -0.0135    0.0000    0.0000    0.0065    2.2250
     7 N1     *px        0.0002   -0.0000   -0.0000    0.0000    0.0000    0.1344   -0.0001    0.0000    0.0012    0.4139
     8 N1     2py        0.0501   -0.0000   -0.0000    0.0000    0.0000   -0.0001   -0.0686    0.0000   -2.4129    0.0070
     9 N1     *py        0.0080    0.0000    0.0000   -0.0000   -0.0000   -0.0000   -0.0135    0.0000    2.2250   -0.0065
    10 N1     *py       -0.0952    0.0000   -0.0000   -0.0000   -0.0000    0.0001    0.1344   -0.0000    0.4139   -0.0012
    11 N1     2pz        0.0000    0.0000    0.0000   -0.0000   -0.0000   -0.0000    0.0000    0.2186    0.0000   -0.0000
    12 N1     *pz       -0.0000    0.0000    0.0000   -0.0000   -0.0000    0.0000   -0.0000    0.0906   -0.0000    0.0000
    13 N1     *pz       -0.0000   -0.0000   -0.0000    0.0000    0.0000    0.0000   -0.0000   -0.6216   -0.0000    0.0000
    14 N1     *d2-       0.0000    0.0000   -0.0130   -0.0000    0.0120   -0.0000   -0.0000    0.0000   -0.0000    0.0000
    15 N1     *d2-      -0.0000   -0.0000    0.7133    0.0000   -0.7138    0.0000   -0.0000   -0.0000   -0.0000    0.0000
    16 N1     *d1-      -0.0166   -0.0000    0.0000    0.0000    0.0000   -0.0000   -0.0068   -0.0000    0.0082   -0.0000
    17 N1     *d1-       0.7094    0.0000    0.0000    0.0000    0.0000    0.0005    0.7160   -0.0000    0.0168   -0.0000
    18 N1     *d0        0.0000    0.0000    0.0000    0.0000    0.0000    0.0000   -0.0000   -0.0131   -0.0000    0.0000
    19 N1     *d0       -0.0000   -0.0000   -0.0000   -0.0000   -0.0000    0.0000   -0.0000   -0.7068    0.0000   -0.0000
    20 N1     *d1+       0.0000   -0.0000    0.0000   -0.0000    0.0000   -0.0068    0.0000    0.0000    0.0000    0.0082
    21 N1     *d1+      -0.0011    0.0000   -0.0000    0.0000   -0.0000    0.7160   -0.0005    0.0000    0.0000    0.0168
    22 N1     *d2+      -0.0000   -0.0130   -0.0000    0.0121    0.0000    0.0000    0.0000    0.0000   -0.0000   -0.0000
    23 N1     *d2+       0.0000    0.7133    0.0000   -0.7138   -0.0000   -0.0000   -0.0000   -0.0000   -0.0000    0.0000
    24 N1     *f3-      -0.0000   -0.0000   -0.0000    0.0000    0.0000   -0.0000   -0.0000    0.0000    0.0000   -0.0000
    25 N1     *f2-       0.0000   -0.0000    0.0004   -0.0000    0.0005   -0.0000   -0.0000   -0.0000    0.0000   -0.0000
    26 N1     *f1-       0.0024   -0.0000    0.0000    0.0000    0.0000   -0.0000   -0.0035    0.0000   -0.0096    0.0000
    27 N1     *f0        0.0000    0.0000    0.0000   -0.0000   -0.0000   -0.0000    0.0000    0.0149    0.0000    0.0000
    28 N1     *f1+      -0.0000   -0.0000    0.0000    0.0000   -0.0000   -0.0035    0.0000   -0.0000   -0.0000   -0.0096
    29 N1     *f2+       0.0000    0.0004    0.0000    0.0005    0.0000   -0.0000    0.0000   -0.0000    0.0000   -0.0000
    30 N1     *f3+      -0.0000   -0.0000    0.0000    0.0000   -0.0000    0.0000   -0.0000   -0.0000   -0.0000   -0.0000
    31 N2     1s         0.0000   -0.0000   -0.0000   -0.0000   -0.0000    0.0000   -0.0000   -0.1087   -0.0000    0.0000
    32 N2     2s         0.0000   -0.0000   -0.0000   -0.0000   -0.0000    0.0000   -0.0000   -0.5815   -0.0000    0.0000
    33 N2     *s        -0.0000    0.0000    0.0000    0.0000    0.0000   -0.0000    0.0000   -0.0252    0.0000    0.0000
    34 N2     *s        -0.0000    0.0000    0.0000    0.0000    0.0000   -0.0000    0.0000    0.7835   -0.0000   -0.0000
    35 N2     2px       -0.0001    0.0000   -0.0000    0.0000    0.0000    0.0686   -0.0001    0.0000   -0.0071   -2.4147
    36 N2     *px       -0.0000   -0.0000   -0.0000   -0.0000   -0.0000    0.0135   -0.0000    0.0000    0.0065    2.2267
    37 N2     *px        0.0002    0.0000    0.0000   -0.0000    0.0000   -0.1344    0.0001   -0.0000    0.0012    0.4142
    38 N2     2py        0.0501    0.0000    0.0000   -0.0000   -0.0000    0.0001    0.0686   -0.0000   -2.4147    0.0071
    39 N2     *py        0.0080    0.0000    0.0000    0.0000   -0.0000    0.0000    0.0135   -0.0000    2.2267   -0.0065
    40 N2     *py       -0.0952   -0.0000   -0.0000   -0.0000   -0.0000   -0.0001   -0.1344    0.0000    0.4142   -0.0012
    41 N2     2pz        0.0000    0.0000    0.0000    0.0000    0.0000   -0.0000    0.0000    0.2186    0.0000   -0.0000
    42 N2     *pz        0.0000    0.0000    0.0000    0.0000    0.0000    0.0000   -0.0000    0.0906   -0.0000    0.0000
    43 N2     *pz       -0.0000   -0.0000   -0.0000   -0.0000   -0.0000    0.0000    0.0000   -0.6216   -0.0000    0.0000
    44 N2     *d2-      -0.0000    0.0000   -0.0130    0.0000   -0.0121    0.0000   -0.0000    0.0000   -0.0000    0.0000
    45 N2     *d2-      -0.0000   -0.0000    0.7132   -0.0000    0.7139    0.0000   -0.0000   -0.0000    0.0000    0.0000
    46 N2     *d1-       0.0166   -0.0000    0.0000    0.0000   -0.0000   -0.0000   -0.0068    0.0000   -0.0082    0.0000
    47 N2     *d1-      -0.7094    0.0000   -0.0000   -0.0000   -0.0000    0.0005    0.7160   -0.0000   -0.0168    0.0000
    48 N2     *d0       -0.0000   -0.0000   -0.0000    0.0000    0.0000   -0.0000    0.0000    0.0131   -0.0000    0.0000
    49 N2     *d0        0.0000    0.0000    0.0000   -0.0000   -0.0000   -0.0000    0.0000    0.7068   -0.0000   -0.0000
    50 N2     *d1+      -0.0000   -0.0000    0.0000    0.0000   -0.0000   -0.0068    0.0000    0.0000   -0.0000   -0.0082
    51 N2     *d1+       0.0011   -0.0000   -0.0000   -0.0000    0.0000    0.7160   -0.0005    0.0000   -0.0000   -0.0168
    52 N2     *d2+       0.0000   -0.0130   -0.0000   -0.0121   -0.0000   -0.0000   -0.0000    0.0000   -0.0000   -0.0000
    53 N2     *d2+      -0.0000    0.7132    0.0000    0.7138    0.0000   -0.0000   -0.0000   -0.0000   -0.0000   -0.0000
    54 N2     *f3-      -0.0000   -0.0000    0.0000   -0.0000    0.0000    0.0000    0.0000    0.0000    0.0000   -0.0000
    55 N2     *f2-      -0.0000    0.0000   -0.0004   -0.0000    0.0005   -0.0000    0.0000    0.0000   -0.0000   -0.0000
    56 N2     *f1-       0.0024   -0.0000   -0.0000   -0.0000    0.0000    0.0000    0.0035   -0.0000   -0.0096    0.0000
    57 N2     *f0       -0.0000    0.0000    0.0000    0.0000    0.0000   -0.0000    0.0000    0.0149    0.0000    0.0000
    58 N2     *f1+      -0.0000   -0.0000    0.0000    0.0000    0.0000    0.0035   -0.0000    0.0000   -0.0000   -0.0096
    59 N2     *f2+      -0.0000   -0.0004   -0.0000    0.0005    0.0000    0.0000    0.0000    0.0000    0.0000   -0.0000
    60 N2     *f3+      -0.0000    0.0000    0.0000    0.0000    0.0000   -0.0000    0.0000    0.0000   -0.0000   -0.0000


      Orbital                31        32        33        34        35        36        37        38        39        40
      Energy             0.0000    0.0000    0.0000    0.0000    0.0000    0.0000    0.0000    0.0000    0.0000    0.0000
      Occ. No.           0.0000    0.0000    0.0000    0.0000    0.0000    0.0000    0.0000    0.0000    0.0000    0.0000

     1 N1     1s         0.0000    0.0000   -0.0205    0.0218    0.0201    0.0000   -0.0000   -0.0000   -0.0000    0.0000
     2 N1     2s         0.0000    0.0000    0.0501    0.0584    0.0358    0.0000   -0.0000   -0.0000   -0.0000    0.0000
     3 N1     *s        -0.0000   -0.0000    0.0894   -0.0194   -0.0322   -0.0000    0.0000    0.0000    0.0000   -0.0000
     4 N1     *s        -0.0000   -0.0000   -0.2014   -0.0867   -0.0156   -0.0000   -0.0000    0.0000    0.0000   -0.0000
     5 N1     2px       -0.0162   -2.4245   -0.0000   -0.0000   -0.0000   -0.0000   -0.0000   -0.0000    0.0000    0.0000
     6 N1     *px        0.0151    2.2700    0.0000    0.0000    0.0000    0.0000    0.0000    0.0000   -0.0000   -0.0000
     7 N1     *px        0.0023    0.3409    0.0000    0.0000   -0.0000    0.0000    0.0000    0.0000   -0.0000    0.0000
     8 N1     2py        2.4245   -0.0162    0.0000    0.0000    0.0000    0.0000   -0.0000   -0.0000   -0.0000   -0.0000
     9 N1     *py       -2.2700    0.0151   -0.0000   -0.0000   -0.0000   -0.0000    0.0000    0.0000    0.0000    0.0000
    10 N1     *py       -0.3409    0.0023   -0.0000   -0.0000    0.0000   -0.0000    0.0000    0.0000    0.0000    0.0000
    11 N1     2pz       -0.0000    0.0000   -2.4208    2.4259    0.0433    0.0000   -0.0000   -0.0000   -0.0000    0.0000
    12 N1     *pz        0.0000   -0.0000    2.3102   -2.2748   -0.0492   -0.0000    0.0000    0.0000    0.0000   -0.0000
    13 N1     *pz        0.0000    0.0000    0.1796   -0.3983    0.0079    0.0000   -0.0000   -0.0000    0.0000    0.0000
    14 N1     *d2-      -0.0000    0.0000    0.0000   -0.0000    0.0000    0.0000    0.0000    0.0000   -0.0000   -0.0039
    15 N1     *d2-       0.0000    0.0000   -0.0000    0.0000   -0.0000   -0.0000   -0.0000   -0.0000    0.0000    0.0026
    16 N1     *d1-       0.0162   -0.0001    0.0000   -0.0000    0.0000    0.0000   -0.0000   -0.0000   -0.0000   -0.0000
    17 N1     *d1-       0.0176   -0.0001    0.0000   -0.0000    0.0000   -0.0000    0.0000    0.0000    0.0000   -0.0000
    18 N1     *d0        0.0000    0.0000   -0.0382    0.0055    0.0324    0.0000    0.0000   -0.0000    0.0000    0.0000
    19 N1     *d0        0.0000    0.0000   -0.0689   -0.0235   -0.0058   -0.0000   -0.0000    0.0000   -0.0000   -0.0000
    20 N1     *d1+      -0.0001   -0.0162   -0.0000    0.0000    0.0000   -0.0000   -0.0000   -0.0000    0.0000    0.0000
    21 N1     *d1+      -0.0001   -0.0176   -0.0000    0.0000   -0.0000    0.0000    0.0000    0.0000   -0.0000   -0.0000
    22 N1     *d2+       0.0000   -0.0000    0.0000   -0.0000    0.0000   -0.0000    0.0000    0.0000    0.0000    0.0000
    23 N1     *d2+       0.0000   -0.0000   -0.0000    0.0000   -0.0000    0.0000   -0.0000   -0.0000   -0.0000   -0.0000
    24 N1     *f3-      -0.0000    0.0000    0.0000    0.0000   -0.0000    0.7077   -0.0583   -0.7041   -0.0055    0.0000
    25 N1     *f2-      -0.0000   -0.0000    0.0000   -0.0000    0.0000    0.0000    0.0000   -0.0000   -0.0000   -0.7053
    26 N1     *f1-      -0.0113    0.0001   -0.0000    0.0000    0.0000   -0.0001    0.0000    0.0001    0.0000   -0.0000
    27 N1     *f0       -0.0000   -0.0000    0.0285    0.0086   -0.7063   -0.0000   -0.0000    0.0000   -0.0000    0.0000
    28 N1     *f1+       0.0001    0.0113   -0.0000    0.0000   -0.0000    0.0000    0.0001    0.0000   -0.0001    0.0000
    29 N1     *f2+      -0.0000   -0.0000    0.0000   -0.0000    0.0000   -0.0000    0.0000    0.0000   -0.0000    0.0000
    30 N1     *f3+      -0.0000   -0.0000   -0.0000    0.0000   -0.0000    0.0583    0.7077    0.0055   -0.7041    0.0000
    31 N2     1s        -0.0000   -0.0000    0.0205    0.0218    0.0201    0.0000   -0.0000   -0.0000    0.0000   -0.0000
    32 N2     2s        -0.0000   -0.0000   -0.0501    0.0584    0.0358    0.0000   -0.0000   -0.0000   -0.0000   -0.0000
    33 N2     *s         0.0000    0.0000   -0.0894   -0.0194   -0.0322   -0.0000    0.0000    0.0000   -0.0000    0.0000
    34 N2     *s         0.0000    0.0000    0.2014   -0.0867   -0.0156    0.0000    0.0000    0.0000    0.0000    0.0000
    35 N2     2px        0.0162    2.4227    0.0000    0.0000    0.0000   -0.0000   -0.0000   -0.0000    0.0000   -0.0000
    36 N2     *px       -0.0151   -2.2684   -0.0000   -0.0000   -0.0000    0.0000    0.0000    0.0000   -0.0000    0.0000
    37 N2     *px       -0.0023   -0.3406   -0.0000   -0.0000   -0.0000   -0.0000   -0.0000   -0.0000    0.0000   -0.0000
    38 N2     2py       -2.4227    0.0162   -0.0000   -0.0000   -0.0000    0.0000   -0.0000   -0.0000   -0.0000    0.0000
    39 N2     *py        2.2684   -0.0151    0.0000    0.0000    0.0000   -0.0000    0.0000    0.0000    0.0000   -0.0000
    40 N2     *py        0.3406   -0.0023    0.0000    0.0000   -0.0000    0.0000   -0.0000   -0.0000   -0.0000    0.0000
    41 N2     2pz        0.0000    0.0000   -2.4208   -2.4259   -0.0433   -0.0000   -0.0000    0.0000   -0.0000    0.0000
    42 N2     *pz       -0.0000   -0.0000    2.3101    2.2748    0.0492    0.0000    0.0000   -0.0000    0.0000   -0.0000
    43 N2     *pz       -0.0000   -0.0000    0.1796    0.3984   -0.0079    0.0000   -0.0000    0.0000    0.0000    0.0000
    44 N2     *d2-      -0.0000   -0.0000    0.0000    0.0000   -0.0000   -0.0000   -0.0000    0.0000   -0.0000   -0.0040
    45 N2     *d2-       0.0000   -0.0000   -0.0000   -0.0000    0.0000    0.0000    0.0000   -0.0000    0.0000    0.0026
    46 N2     *d1-       0.0162   -0.0001    0.0000    0.0000    0.0000   -0.0000    0.0000   -0.0000   -0.0000   -0.0000
    47 N2     *d1-       0.0176   -0.0001    0.0000    0.0000   -0.0000    0.0000   -0.0000    0.0000    0.0000   -0.0000
    48 N2     *d0       -0.0000   -0.0000    0.0382    0.0056    0.0324    0.0000    0.0000   -0.0000    0.0000   -0.0000
    49 N2     *d0       -0.0000   -0.0000    0.0689   -0.0235   -0.0058   -0.0000   -0.0000    0.0000   -0.0000    0.0000
    50 N2     *d1+      -0.0001   -0.0162   -0.0000   -0.0000   -0.0000    0.0000    0.0000   -0.0000    0.0000    0.0000
    51 N2     *d1+      -0.0001   -0.0176   -0.0000    0.0000    0.0000   -0.0000   -0.0000    0.0000   -0.0000   -0.0000
    52 N2     *d2+      -0.0000    0.0000    0.0000    0.0000   -0.0000    0.0000   -0.0000    0.0000    0.0000    0.0000
    53 N2     *d2+      -0.0000   -0.0000   -0.0000   -0.0000    0.0000   -0.0000    0.0000   -0.0000   -0.0000   -0.0000
    54 N2     *f3-       0.0000   -0.0000    0.0000    0.0000    0.0000    0.7017   -0.0578    0.7101    0.0055   -0.0000
    55 N2     *f2-       0.0000    0.0000   -0.0000   -0.0000    0.0000    0.0000    0.0000    0.0000    0.0000    0.7089
    56 N2     *f1-       0.0113   -0.0001   -0.0000   -0.0000   -0.0000   -0.0000    0.0000    0.0001    0.0000   -0.0000
    57 N2     *f0        0.0000   -0.0000    0.0285   -0.0086    0.7063    0.0000   -0.0000   -0.0000   -0.0000    0.0000
    58 N2     *f1+      -0.0001   -0.0113   -0.0000   -0.0000    0.0000    0.0000    0.0000    0.0000   -0.0001   -0.0000
    59 N2     *f2+       0.0000    0.0000   -0.0000   -0.0000    0.0000   -0.0000    0.0000   -0.0000    0.0000   -0.0000
    60 N2     *f3+       0.0000    0.0000   -0.0000   -0.0000   -0.0000    0.0578    0.7017   -0.0055    0.7101   -0.0000


      Orbital                41        42        43        44        45        46        47        48        49        50
      Energy             0.0000    0.0000    0.0000    0.0000    0.0000    0.0000    0.0000    0.0000    0.0000    0.0000
      Occ. No.           0.0000    0.0000    0.0000    0.0000    0.0000    0.0000    0.0000    0.0000    0.0000    0.0000

     1 N1     1s         0.0000   -0.0000   -0.0000   -0.0000   -0.0000    0.0000    0.0000    0.0496    0.0443   -0.0000
     2 N1     2s         0.0000   -0.0000    0.0000   -0.0000   -0.0000    0.0000    0.0000    0.0832    0.0812   -0.0000
     3 N1     *s        -0.0000    0.0000   -0.0000    0.0000    0.0000   -0.0000   -0.0000   -0.0842   -0.0716    0.0000
     4 N1     *s        -0.0000   -0.0000   -0.0000    0.0000    0.0000   -0.0000   -0.0000   -0.0176   -0.0318    0.0000
     5 N1     2px       -0.0000   -0.0000   -0.0411   -0.0000    0.0000   -0.0000    0.0461    0.0000    0.0000   -0.0017
     6 N1     *px        0.0000    0.0000    0.0444    0.0000   -0.0000    0.0000   -0.0511   -0.0000   -0.0000    0.0021
     7 N1     *px       -0.0000   -0.0000   -0.0040   -0.0000    0.0000   -0.0000    0.0075    0.0000   -0.0000   -0.0006
     8 N1     2py       -0.0000   -0.0411    0.0000    0.0000    0.0000   -0.0461   -0.0000   -0.0000   -0.0000   -0.0397
     9 N1     *py        0.0000    0.0444   -0.0000   -0.0000   -0.0000    0.0511    0.0000    0.0000    0.0000    0.0495
    10 N1     *py       -0.0000   -0.0040    0.0000    0.0000    0.0000   -0.0075   -0.0000   -0.0000    0.0000   -0.0143
    11 N1     2pz        0.0000   -0.0000   -0.0000   -0.0000   -0.0000    0.0000    0.0000    0.1009    0.0014   -0.0000
    12 N1     *pz       -0.0000    0.0000   -0.0000    0.0000    0.0000   -0.0000    0.0000   -0.1184   -0.0152    0.0000
    13 N1     *pz        0.0000   -0.0000    0.0000   -0.0000   -0.0000    0.0000   -0.0000    0.0387    0.0296    0.0000
    14 N1     *d2-      -0.0000    0.0000   -0.0000    0.0071    0.0000   -0.0000    0.0000    0.0000   -0.0000    0.0000
    15 N1     *d2-       0.0000   -0.0000    0.0000   -0.0029   -0.0000    0.0000   -0.0000   -0.0000    0.0000   -0.0000
    16 N1     *d1-      -0.0000   -0.0059    0.0000    0.0000    0.0000   -0.0246   -0.0000    0.0000   -0.0000   -0.8249
    17 N1     *d1-       0.0000   -0.0006    0.0000    0.0000    0.0000    0.0066    0.0000   -0.0000    0.0000    0.4093
    18 N1     *d0        0.0000   -0.0000    0.0000   -0.0000   -0.0000    0.0000    0.0000    0.0752    0.8204    0.0000
    19 N1     *d0       -0.0000    0.0000   -0.0000    0.0000    0.0000   -0.0000   -0.0000   -0.0144   -0.3923   -0.0000
    20 N1     *d1+      -0.0000   -0.0000   -0.0059   -0.0000    0.0000   -0.0000    0.0246   -0.0000   -0.0000   -0.0351
    21 N1     *d1+      -0.0000   -0.0000   -0.0006   -0.0000   -0.0000    0.0000   -0.0066    0.0000    0.0000    0.0174
    22 N1     *d2+      -0.0040    0.0000    0.0000   -0.0000    0.0071    0.0000   -0.0000    0.0000   -0.0000   -0.0000
    23 N1     *d2+       0.0026   -0.0000   -0.0000    0.0000   -0.0029   -0.0000    0.0000   -0.0000    0.0000    0.0000
    24 N1     *f3-      -0.0000    0.0001   -0.0000   -0.0000    0.0000   -0.0000   -0.0000   -0.0000   -0.0000    0.0000
    25 N1     *f2-      -0.0000    0.0000   -0.0000    0.7089    0.0000    0.0000    0.0000    0.0000    0.0000   -0.0000
    26 N1     *f1-      -0.0000    0.7069   -0.0005   -0.0000   -0.0000   -0.7069   -0.0001    0.0000    0.0000   -0.0061
    27 N1     *f0        0.0000   -0.0000    0.0000    0.0000    0.0000   -0.0000   -0.0000    0.7031    0.0313    0.0000
    28 N1     *f1+       0.0000    0.0005    0.7069    0.0000   -0.0000   -0.0001    0.7069   -0.0000   -0.0000   -0.0003
    29 N1     *f2+      -0.7066    0.0000    0.0000   -0.0000    0.7076    0.0000   -0.0000    0.0000    0.0000    0.0000
    30 N1     *f3+       0.0000   -0.0000   -0.0001   -0.0000   -0.0000    0.0000   -0.0000   -0.0000    0.0000   -0.0000
    31 N2     1s        -0.0000    0.0000   -0.0000   -0.0000   -0.0000    0.0000    0.0000   -0.0496    0.0443    0.0000
    32 N2     2s        -0.0000    0.0000    0.0000   -0.0000   -0.0000    0.0000   -0.0000   -0.0833    0.0811    0.0000
    33 N2     *s         0.0000   -0.0000    0.0000    0.0000    0.0000   -0.0000   -0.0000    0.0843   -0.0715   -0.0000
    34 N2     *s         0.0000   -0.0000   -0.0000    0.0000    0.0000   -0.0000    0.0000    0.0176   -0.0318   -0.0000
    35 N2     2px       -0.0000   -0.0000   -0.0410   -0.0000    0.0000    0.0000   -0.0461    0.0000    0.0000   -0.0017
    36 N2     *px        0.0000    0.0000    0.0444    0.0000   -0.0000   -0.0000    0.0511   -0.0000   -0.0000    0.0021
    37 N2     *px        0.0000   -0.0000   -0.0040   -0.0000    0.0000    0.0000   -0.0075   -0.0000    0.0000   -0.0006
    38 N2     2py        0.0000   -0.0410    0.0000    0.0000    0.0000    0.0461    0.0000   -0.0000   -0.0000   -0.0397
    39 N2     *py       -0.0000    0.0444   -0.0000   -0.0000   -0.0000   -0.0511   -0.0000    0.0000    0.0000    0.0494
    40 N2     *py        0.0000   -0.0040    0.0000    0.0000    0.0000    0.0075    0.0000   -0.0000    0.0000   -0.0143
    41 N2     2pz        0.0000   -0.0000    0.0000    0.0000    0.0000   -0.0000   -0.0000    0.1009   -0.0013    0.0000
    42 N2     *pz       -0.0000    0.0000   -0.0000   -0.0000   -0.0000    0.0000    0.0000   -0.1184    0.0151   -0.0000
    43 N2     *pz        0.0000   -0.0000    0.0000    0.0000    0.0000   -0.0000   -0.0000    0.0387   -0.0296   -0.0000
    44 N2     *d2-      -0.0000   -0.0000    0.0000   -0.0071   -0.0000   -0.0000    0.0000    0.0000    0.0000   -0.0000
    45 N2     *d2-       0.0000    0.0000   -0.0000    0.0029    0.0000    0.0000   -0.0000   -0.0000   -0.0000    0.0000
    46 N2     *d1-      -0.0000    0.0059   -0.0000   -0.0000   -0.0000   -0.0246   -0.0000    0.0000   -0.0000    0.8250
    47 N2     *d1-       0.0000    0.0006   -0.0000   -0.0000   -0.0000    0.0066    0.0000   -0.0000    0.0000   -0.4094
    48 N2     *d0       -0.0000    0.0000   -0.0000   -0.0000   -0.0000    0.0000    0.0000   -0.0752    0.8206   -0.0000
    49 N2     *d0        0.0000   -0.0000   -0.0000    0.0000    0.0000    0.0000   -0.0000    0.0144   -0.3925    0.0000
    50 N2     *d1+       0.0000    0.0000    0.0059    0.0000   -0.0000   -0.0000    0.0246   -0.0000    0.0000    0.0351
    51 N2     *d1+      -0.0000    0.0000    0.0006    0.0000   -0.0000    0.0000   -0.0066    0.0000   -0.0000   -0.0174
    52 N2     *d2+      -0.0040   -0.0000   -0.0000    0.0000   -0.0071    0.0000    0.0000    0.0000    0.0000    0.0000
    53 N2     *d2+       0.0026    0.0000    0.0000   -0.0000    0.0029   -0.0000   -0.0000   -0.0000   -0.0000   -0.0000
    54 N2     *f3-       0.0000   -0.0000    0.0000   -0.0000    0.0000   -0.0000   -0.0000   -0.0000    0.0000    0.0000
    55 N2     *f2-       0.0000    0.0000   -0.0000    0.7053    0.0000   -0.0000   -0.0000   -0.0000    0.0000    0.0000
    56 N2     *f1-       0.0000    0.7072   -0.0005   -0.0000   -0.0000    0.7066    0.0001    0.0000    0.0000   -0.0061
    57 N2     *f0        0.0000    0.0000    0.0000   -0.0000   -0.0000    0.0000    0.0000    0.7031   -0.0313   -0.0000
    58 N2     *f1+       0.0000    0.0005    0.7072    0.0000   -0.0000    0.0001   -0.7066   -0.0000    0.0000   -0.0003
    59 N2     *f2+       0.7076    0.0000    0.0000   -0.0000    0.7066   -0.0000    0.0000   -0.0000    0.0000   -0.0000
    60 N2     *f3+      -0.0000    0.0000    0.0000   -0.0000   -0.0000    0.0000   -0.0000    0.0000   -0.0000   -0.0000


      Orbital                51        52        53        54        55        56        57        58        59        60
      Energy             0.0000    0.0000    0.0000    0.0000    0.0000    0.0000    0.0000    0.0000    0.0000    0.0000
      Occ. No.           0.0000    0.0000    0.0000    0.0000    0.0000    0.0000    0.0000    0.0000    0.0000    0.0000

     1 N1     1s        -0.0000    0.0000    0.0000   -0.0000   -0.0000    0.0000    0.0000    0.3019    1.6189   -1.7260
     2 N1     2s        -0.0000    0.0000    0.0000    0.0000    0.0000    0.0000    0.0000    0.5972    3.5098   -3.8985
     3 N1     *s         0.0000   -0.0000   -0.0000    0.0000    0.0000   -0.0000   -0.0000   -0.4630   -2.3092    2.3656
     4 N1     *s         0.0000   -0.0000   -0.0000   -0.0000   -0.0000   -0.0000   -0.0000   -0.2883   -2.1632    2.6619
     5 N1     2px        0.0397    0.0000   -0.0000   -0.0000    0.0000   -0.0005   -0.0701   -0.0000   -0.0000   -0.0000
     6 N1     *px       -0.0495   -0.0000    0.0000    0.0000   -0.0000    0.0005    0.0820   -0.0000    0.0000    0.0000
     7 N1     *px        0.0143   -0.0000    0.0000    0.0000   -0.0000   -0.0001   -0.0203    0.0000    0.0000    0.0000
     8 N1     2py       -0.0017   -0.0000   -0.0000    0.0000    0.0000   -0.0701    0.0005   -0.0000   -0.0000    0.0000
     9 N1     *py        0.0021    0.0000    0.0000   -0.0000   -0.0000    0.0820   -0.0005    0.0000    0.0000   -0.0000
    10 N1     *py       -0.0006   -0.0000    0.0000   -0.0000   -0.0000   -0.0203    0.0001   -0.0000    0.0000   -0.0000
    11 N1     2pz       -0.0000    0.0000    0.0000   -0.0000   -0.0000    0.0000   -0.0000    0.1507   -0.0174    0.2325
    12 N1     *pz        0.0000   -0.0000   -0.0000    0.0000    0.0000   -0.0000    0.0000   -0.1989    0.0099   -0.3384
    13 N1     *pz       -0.0000    0.0000    0.0000   -0.0000   -0.0000   -0.0000    0.0000    0.1120    0.0401    0.2753
    14 N1     *d2-      -0.0000    0.8269    0.0000   -0.8289   -0.0000   -0.0000    0.0000   -0.0000    0.0000   -0.0000
    15 N1     *d2-       0.0000   -0.4186   -0.0000    0.4216    0.0000    0.0000   -0.0000    0.0000   -0.0000    0.0000
    16 N1     *d1-      -0.0351    0.0000    0.0000    0.0000    0.0000    0.8304   -0.0053   -0.0000   -0.0000   -0.0000
    17 N1     *d1-       0.0174   -0.0000   -0.0000   -0.0000   -0.0000   -0.4353    0.0028    0.0000    0.0000   -0.0000
    18 N1     *d0        0.0000   -0.0000   -0.0000   -0.0000   -0.0000    0.0000   -0.0000   -0.8167   -0.0359   -0.1988
    19 N1     *d0       -0.0000    0.0000    0.0000    0.0000    0.0000   -0.0000    0.0000    0.4737    0.0378    0.2113
    20 N1     *d1+       0.8249   -0.0000    0.0000   -0.0000    0.0000    0.0053    0.8304    0.0000   -0.0000    0.0000
    21 N1     *d1+      -0.4093    0.0000   -0.0000    0.0000   -0.0000   -0.0028   -0.4353   -0.0000   -0.0000    0.0000
    22 N1     *d2+      -0.0000   -0.0000    0.8202    0.0000   -0.8356   -0.0000   -0.0000   -0.0000    0.0000   -0.0000
    23 N1     *d2+       0.0000    0.0000   -0.4151   -0.0000    0.4250    0.0000    0.0000    0.0000   -0.0000    0.0000
    24 N1     *f3-       0.0000    0.0000    0.0000    0.0000   -0.0000   -0.0000    0.0000   -0.0000    0.0000   -0.0000
    25 N1     *f2-       0.0000   -0.0033   -0.0000    0.0062    0.0000    0.0000    0.0000    0.0000    0.0000    0.0000
    26 N1     *f1-      -0.0003   -0.0000   -0.0000    0.0000   -0.0000   -0.0222    0.0001   -0.0000    0.0000   -0.0000
    27 N1     *f0        0.0000    0.0000    0.0000   -0.0000   -0.0000   -0.0000    0.0000    0.0606    0.0130    0.0495
    28 N1     *f1+       0.0061    0.0000   -0.0000    0.0000   -0.0000   -0.0001   -0.0222    0.0000    0.0000   -0.0000
    29 N1     *f2+       0.0000    0.0000   -0.0032   -0.0000    0.0062   -0.0000   -0.0000    0.0000    0.0000    0.0000
    30 N1     *f3+       0.0000   -0.0000    0.0000    0.0000    0.0000    0.0000    0.0000    0.0000   -0.0000    0.0000
    31 N2     1s         0.0000   -0.0000   -0.0000   -0.0000   -0.0000    0.0000    0.0000   -0.3021    1.6203    1.7246
    32 N2     2s        -0.0000   -0.0000   -0.0000    0.0000    0.0000    0.0000    0.0000   -0.5976    3.5129    3.8956
    33 N2     *s        -0.0000    0.0000    0.0000    0.0000    0.0000   -0.0000   -0.0000    0.4633   -2.3111   -2.3637
    34 N2     *s         0.0000    0.0000    0.0000   -0.0000   -0.0000   -0.0000   -0.0000    0.2886   -2.1653   -2.6600
    35 N2     2px        0.0397   -0.0000   -0.0000   -0.0000    0.0000    0.0005    0.0701    0.0000    0.0000    0.0000
    36 N2     *px       -0.0494    0.0000    0.0000    0.0000   -0.0000   -0.0005   -0.0820    0.0000   -0.0000   -0.0000
    37 N2     *px        0.0143   -0.0000   -0.0000   -0.0000   -0.0000    0.0001    0.0203   -0.0000   -0.0000   -0.0000
    38 N2     2py       -0.0017   -0.0000    0.0000   -0.0000    0.0000    0.0701   -0.0005   -0.0000   -0.0000   -0.0000
    39 N2     *py        0.0021    0.0000   -0.0000    0.0000   -0.0000   -0.0820    0.0005    0.0000    0.0000    0.0000
    40 N2     *py       -0.0006    0.0000    0.0000   -0.0000    0.0000    0.0203   -0.0001    0.0000    0.0000    0.0000
    41 N2     2pz       -0.0000    0.0000    0.0000   -0.0000    0.0000    0.0000   -0.0000    0.1507    0.0176    0.2325
    42 N2     *pz       -0.0000   -0.0000   -0.0000   -0.0000   -0.0000   -0.0000    0.0000   -0.1989   -0.0102   -0.3384
    43 N2     *pz       -0.0000    0.0000    0.0000    0.0000    0.0000   -0.0000    0.0000    0.1121   -0.0399    0.2753
    44 N2     *d2-       0.0000    0.8285    0.0000    0.8273    0.0000   -0.0000    0.0000   -0.0000   -0.0000   -0.0000
    45 N2     *d2-      -0.0000   -0.4194   -0.0000   -0.4208   -0.0000    0.0000   -0.0000    0.0000    0.0000    0.0000
    46 N2     *d1-       0.0351    0.0000    0.0000   -0.0000   -0.0000    0.8302   -0.0053    0.0000   -0.0000   -0.0000
    47 N2     *d1-      -0.0174   -0.0000   -0.0000    0.0000    0.0000   -0.4352    0.0028   -0.0000    0.0000    0.0000
    48 N2     *d0       -0.0000    0.0000    0.0000   -0.0000   -0.0000    0.0000   -0.0000    0.8166   -0.0356    0.1988
    49 N2     *d0        0.0000   -0.0000   -0.0000    0.0000    0.0000   -0.0000    0.0000   -0.4737    0.0376   -0.2114
    50 N2     *d1+      -0.8250   -0.0000    0.0000    0.0000   -0.0000    0.0053    0.8302   -0.0000   -0.0000   -0.0000
    51 N2     *d1+       0.4094    0.0000   -0.0000   -0.0000    0.0000   -0.0028   -0.4352    0.0000    0.0000   -0.0000
    52 N2     *d2+       0.0000   -0.0000    0.8352   -0.0000    0.8206   -0.0000   -0.0000   -0.0000   -0.0000   -0.0000
    53 N2     *d2+      -0.0000    0.0000   -0.4228    0.0000   -0.4174    0.0000    0.0000    0.0000    0.0000    0.0000
    54 N2     *f3-       0.0000   -0.0000    0.0000   -0.0000    0.0000    0.0000   -0.0000   -0.0000    0.0000    0.0000
    55 N2     *f2-      -0.0000    0.0033    0.0000    0.0062    0.0000   -0.0000    0.0000   -0.0000    0.0000   -0.0000
    56 N2     *f1-      -0.0003    0.0000    0.0000    0.0000    0.0000    0.0222   -0.0001    0.0000   -0.0000    0.0000
    57 N2     *f0       -0.0000    0.0000    0.0000    0.0000    0.0000   -0.0000    0.0000    0.0606   -0.0130    0.0495
    58 N2     *f1+       0.0061   -0.0000    0.0000   -0.0000    0.0000    0.0001    0.0222   -0.0000    0.0000    0.0000
    59 N2     *f2+       0.0000   -0.0000    0.0033   -0.0000    0.0061   -0.0000   -0.0000   -0.0000    0.0000   -0.0000
    60 N2     *f3+       0.0000   -0.0000   -0.0000   -0.0000   -0.0000   -0.0000   -0.0000    0.0000    0.0000    0.0000
--

      Von Neumann Entropy (Root   1) =  2.96921


      Mulliken population analysis for root number:  1
      -----------------------------------------------


++    Molecular charges:
      ------------------

      Mulliken charges per centre and basis function type
      ---------------------------------------------------

                N1      N2    
      1s       2.0016  2.0016
      2s       2.0753  2.0753
      2px      0.9216  0.9216
      2pz      0.9142  0.9142
      2py      0.9216  0.9216
      *s      -0.0752 -0.0753
      *px      0.0781  0.0781
      *pz      0.0828  0.0828
      *py      0.0781  0.0781
      *d2+     0.0000  0.0000
      *d1+     0.0004  0.0004
      *d0      0.0013  0.0013
      *d1-     0.0004  0.0004
      *d2-     0.0000  0.0000
      *f3+     0.0000  0.0000
      *f2+     0.0000  0.0000
      *f1+     0.0000  0.0000
      *f0      0.0000  0.0000
      *f1-     0.0000  0.0000
      *f2-     0.0000  0.0000
      *f3-     0.0000  0.0000
      Total    7.0000  7.0000

      N-E     -0.0000  0.0000

      Total electronic charge=   14.000000

      Total            charge=   -0.000000
--



      Expectation values of various properties for root number:  1
      -----------------------------------------------------------

      Properties not supported for DMRGSCF 

++    Molecular properties:
      ---------------------

      Charge (e):
                      =   -0.0000
      Dipole Moment (Debye):
      Origin of the operator (Ang)=    0.0000    0.0000    0.0000
                   X=  1.0272E-07               Y= -1.6471E-07               Z=  9.5351E-06           Total=  9.5370E-06
      Quadrupole Moment (Debye*Ang):
      Origin of the operator (Ang)=    0.0000    0.0000    1.4000
                  XX= -1.1983E+01              XY= -1.9977E-09              XZ= -6.9428E-08              YY= -1.1983E+01
                  YZ=  1.1801E-07              ZZ= -1.1716E+01
      In traceless form (Debye*Ang)
                  XX= -1.3374E-01              XY= -2.9966E-09              XZ= -1.0414E-07              YY= -1.3374E-01
                  YZ=  1.7702E-07              ZZ=  2.6749E-01
--


      Input file to MOLDEN was generated!

      Average orbitals are written to the RASORB file
      Natural orbitals for root   1 are written to the RASORB.1 file
      Spin density orbitals for root   1 are written to the SPDORB.1 file

--- Stop Module: dmrgscf at Tue Apr  9 00:43:03 2024 /rc=_RC_ALL_IS_WELL_ ---
*** files: n2.GssOrb n2.guessorb.h5 n2.rasscf.molden n2.guessorb.molden n2.scf.molden n2.RasOrb n2.RasOrb.1 n2.dmrgscf.h5 n2.ScfOrb n2.scf.h5 n2.SpdOrb.1 xmldump
    saved to directory /public/home/xzzeng/work/HQC/N2/cc-pvtz/NO/PES/entropy/2.8/results/work_dir/n2/dmrg
--- Module dmrgscf spent 4 seconds ---

.##################.
.# Happy landing! #.
.##################.

    Timing: Wall=4.87 User=3.20 System=0.22
