   This run of MOLCAS is using the pymolcas driver

                             OPE
                             OPE          NMOL  CASOP  ENMOLC A   SO
                 OPE        NMOLC        AS  OP EN  MO LC     AS  OP
                OPENM       OL CA        SO  PE NM  OL CA     SOP EN
                OP EN      MO   LC       AS  OP ENMOL  CASO   PENMOL
                OP  EN     MO   LC       AS  OP EN     MO     LC ASO
               OP   E  NMOL  C  AS       OP  EN MO     LC     AS  OP
               OP  E   NMO   LC AS        OPEN  MO     LCASOP EN   M
               O  PEN   MO  LCA  SO
            OPE   NMO   L   CAS    OP
        OPENMOL  CASOP     ENMOL   CASOPE
     OPENMOLCA   SOPENMOLCASOPEN   MOLCASOPE
    OPENMOLCAS   OP           EN   MOL    CAS
    OPENMOLCAS       OP  ENM        O     LCA
    OPENMOLCAS    OPEN  MOLCASO     P  E  NMO
    OPENMOLCAS     OP               E  N  MOL
    OPENMOLCA   SO           PENM   O  L  CAS    OPEN    MO    LCAS
    OPENMOLCA   SOP           ENM   O  L  CAS   OP  EN  MOLC  AS   O
    OPENMOLCA   SOPE           NM      O  LCA   S      OP  EN MO
    OPENMOLC                AS         O  PEN   M      OL  CA  SOPE
    OPENMO        LCASOPE  NMOL        C  ASO   P      ENMOLC     AS
    OPE     NMO      LCA  SO     P     E   NM   OL  CA SO  PE N   MO
          OPENMOLCA            SOPE   NMO        LCAS  O    P  ENMO
     OPENMOLCASOPENMOLCASOPENMOLCASOPENMOLCA
        OPENMOLCASOPENMOLCASOPENMOLCASOPE
            OPENMOLCASOPENMOLCASOPENM
               OPENMOLCASOPENMOLCA        version: o822a959167d23c ?
                   OPENMOLCASO
                       OPE                tag:

 OpenMolcas is free software; you can redistribute it and/or modify it
 under the terms of the GNU Lesser General Public License version 2.1.
 OpenMolcas is distributed in the hope that it will be useful, but it
 is provided "as is" and without any express or implied warranties.
 For more details see the full text of the license in the file
 LICENSE or in <http://www.gnu.org/licenses/>.

                 Copyright (C) The OpenMolcas Authors
           For the author list and the recommended citation,
                   consult the file CONTRIBUTORS.md

           *************************************************
           * pymolcas version py2.28                       *
           *   build c4a6d18ded8cb6cad61d2372a9abd97c      *
           *   (after the EMIL interpreter by V. Veryazov) *
           *************************************************

configuration info
------------------
Host name: mgt (Linux)
C Compiler ID: GNU
C flags: -std=gnu99
Fortran Compiler ID: GNU
Fortran flags: -fno-aggressive-loop-optimizations -cpp -fdefault-integer-8 -fmax-stack-var-size=1048576
Definitions: _MOLCAS_;_I8_;_LINUX_
Parallel: OFF (GA=OFF)


   ----------------------------------------------------------------------------------------------------------
  |
  |           Project: n2
  |    Submitted from: /public/home/xzzeng/work/HQC/N2/cc-pvtz/NO/PES/entropy/1.0/results/work_dir/n2/initial
  |      Scratch area: /public/home/xzzeng/work/HQC/N2/cc-pvtz/NO/PES/entropy/1.0/results/scratch
  |   Save outputs to: /public/home/xzzeng/work/HQC/N2/cc-pvtz/NO/PES/entropy/1.0/results/work_dir/n2/initial
  |            Molcas: /public/home/xzzeng/soft/OpenMolcas/build
  |
  | Scratch area is empty
  |
  |    MOLCAS_DRIVER = /public/home/xzzeng/soft/OpenMolcas/build/pymolcas
  |    MOLCAS_NPROCS = 1
  |    MOLCAS_SOURCE = /public/home/xzzeng/soft/OpenMolcas
  | MOLCAS_STRUCTURE = 0
  |
   ----------------------------------------------------------------------------------------------------------

++ ---------   Input file   ---------

&GATEWAY
  COORD = /public/home/xzzeng/work/HQC/N2/cc-pvtz/NO/PES/entropy/1.0/n2.xyz
  BASIS = cc-pvtz
  GROUP = C1

&SEWARD
  CHOLesky

&SCF
  SPIN   = 1
  CHARGE = 0
  CHOLesky

-- ----------------------------------

--- Start Module: gateway at Tue Apr  9 00:41:37 2024 ---

()()()()()()()()()()()()()()()()()()()()()()()()()()()()()()()()()()()()()()()()()()()()()()()()()()

                                              &GATEWAY

                                   only a single process is used
                       available to each process: 12 GB of memory, 1 thread?
                                             pid: 59735
()()()()()()()()()()()()()()()()()()()()()()()()()()()()()()()()()()()()()()()()()()()()()()()()()()


++    Symmetry information:
      ---------------------

                    Character Table for C1 

                             E  
                    a        1  x, y, xy, Rz, z, xz, Ry, yz, Rx, I
--


++    Basis set information:
      ----------------------


      Basis set label: N.CC-PVTZ.........

      Electronic valence basis set:
      ------------------
      Associated Effective Charge   7.000000 au
      Associated Actual Charge      7.000000 au
      Nuclear Model: Point charge

      Shell  nPrim  nBasis  Cartesian Spherical Contaminant
         s      10       4        X                  
         p       5       3        X                  
         d       2       2                 X         
         f       1       1                 X         
--


++    Molecular structure info:
      -------------------------

                    ************************************************ 
                    **** Cartesian Coordinates / Bohr, Angstrom **** 
                    ************************************************ 

     Center  Label                x              y              z                     x              y              z
        1      N1               0.000000       0.000000       0.000000              0.000000       0.000000       0.000000
        2      N2               0.000000       0.000000       1.889726              0.000000       0.000000       1.000000
--


            Nuclear Potential Energy             25.92968333 au

--- Stop Module: gateway at Tue Apr  9 00:41:37 2024 /rc=_RC_ALL_IS_WELL_ ---
*** files: xmldump
    saved to directory /public/home/xzzeng/work/HQC/N2/cc-pvtz/NO/PES/entropy/1.0/results/work_dir/n2/initial

--- Start Module: seward at Tue Apr  9 00:41:37 2024 ---

()()()()()()()()()()()()()()()()()()()()()()()()()()()()()()()()()()()()()()()()()()()()()()()()()()

                                              &SEWARD

                                   only a single process is used
                       available to each process: 12 GB of memory, 1 thread?
                                             pid: 59738
()()()()()()()()()()()()()()()()()()()()()()()()()()()()()()()()()()()()()()()()()()()()()()()()()()

               SEWARD will generate:
                  Multipole Moment integrals up to order  2
                  Kinetic Energy integrals
                  Nuclear Attraction integrals (point charge)
                  One-Electron Hamiltonian integrals
                  Velocity integrals
                  Orbital angular momentum around ( 0.0000  0.0000  0.9449 )
                  Velocity quadrupole around ( 0.0000  0.0000  0.9449 )
                  Cholesky decomposed two-electron repulsion integrals
                   - CD Threshold:   0.10E-03

                   Integrals are discarded if absolute value <: 1.00E-40
                   Integral cutoff threshold is set to       <: 1.00E-40

            Nuclear Potential Energy             25.92968333 au


      Basis set specifications :
      Symmetry species         a  
      Basis functions           60


      Input file to MOLDEN was generated!

--- Stop Module: seward at Tue Apr  9 00:41:38 2024 /rc=_RC_ALL_IS_WELL_ ---
*** files: n2.GssOrb n2.guessorb.h5 n2.guessorb.molden xmldump
    saved to directory /public/home/xzzeng/work/HQC/N2/cc-pvtz/NO/PES/entropy/1.0/results/work_dir/n2/initial

*** symbolic link created: INPORB -> n2.GssOrb
--- Start Module: scf at Tue Apr  9 00:41:38 2024 ---

()()()()()()()()()()()()()()()()()()()()()()()()()()()()()()()()()()()()()()()()()()()()()()()()()()

                                                &SCF

                                   only a single process is used
                       available to each process: 12 GB of memory, 1 thread?
                                             pid: 59741
()()()()()()()()()()()()()()()()()()()()()()()()()()()()()()()()()()()()()()()()()()()()()()()()()()

++    Input section:
      --------------

      Header of the integral files:
      
       Integrals generated by Gateway/Seward, Tue Apr  9 00:41:38 2024


      Cartesian coordinates in Angstrom:
      -----------------------------------------------------
      No.  Label        X            Y            Z        
      -----------------------------------------------------
       1   N1         0.00000000   0.00000000   0.00000000
       2   N2         0.00000000   0.00000000   1.00000000
      -----------------------------------------------------
      Nuclear repulsion energy =   25.92968333
--

++    Orbital specifications:
      -----------------------

      Symmetry species               1
                                     a
      Frozen orbitals                0
      Occupied orbitals              7
      Secondary orbitals            53
      Deleted orbitals               0
      Total number of orbitals      60
      Number of basis functions     60
--

      Molecular charge                           0.000

++    Optimization specifications:
      ----------------------------

      SCF Algorithm: LK-Cholesky
      LK screening threshold:                     4.50E-02
      Local-Exchange (LK) algorithm.
       - the density matrix is decomposed
      The actual AO density is used
      Number of density matrices in core                 5
      Maximum number of NDDO SCF iterations            400
      Maximum number of HF SCF iterations              400
      Threshold for SCF energy change             1.00E-09
      Threshold for density matrix                1.00E-04
      Threshold for Fock matrix                   1.50E-04
      Threshold for linear dependence             1.00E-09
      Threshold at which DIIS is turned on        1.50E-01
      Maximum depth in the DIIS procedure                5
      Maximum depth in the BFGS Hessian update          30
      Threshold at which QNR/C2DIIS is turned on  7.50E-02
      Threshold for Norm(delta) (QNR/C2DIIS)      1.00E-03
      All orbitals punched on: SCFORB
--

      Input vectors read from INPORB
      Orbital file label: *Guess orbitals


++ Convergence information
                                   SCF        iterations: Energy and convergence statistics

Iter     Tot. SCF        One-elec.       Two-elec.     Energy      Max Dij or  Max Fij      DNorm      TNorm      AccCon     Time
         Energy          Energy          Energy        Change      Delta Norm                                                in Sec.
   1  -108.656410438  -196.520632949    61.934539177   0.00E+00    2.14E-01*   2.26E-01*    5.57E+00   7.61E+01   None         0.
   2  -108.952273338  -199.551013618    64.669056946  -2.96E-01*   6.38E-02*   4.50E-02*    6.43E+00   7.77E+01   EDIIS        0.
   3  -108.966887411  -198.532110399    63.635539654  -1.46E-02*   1.36E-02*   1.28E-02*    6.20E+00   7.71E+01   c2DIIS       0.
   4  -108.967938309  -198.772984585    63.875362941  -1.05E-03*   3.67E-03*   3.45E-03*    6.31E+00   7.72E+01   QNRc2DIIS    0.
   5  -108.967988385  -198.733264731    63.835593012  -5.01E-05*   1.25E-03*   8.62E-04*    6.31E+00   7.72E+01   QNRc2DIIS    0.
   6  -108.967992721  -198.739878090    63.842202035  -4.34E-06*   5.82E-05    4.70E-05     6.31E+00   7.72E+01   QNRc2DIIS    0.
   7  -108.967992736  -198.739989684    63.842313614  -1.51E-08*   1.40E-05    1.16E-05     6.31E+00   7.72E+01   QNRc2DIIS    0.
   8  -108.967992737  -198.739996696    63.842320625  -6.19E-10    1.43E-06    1.14E-06     6.31E+00   7.72E+01   QNRc2DIIS    0.

       Convergence after   8 Macro Iterations
--

 *****************************************************************************************************************************
 *                                                                                                                           *
 *                                             SCF/KS-DFT Program, Final results                                             *
 *                                                                                                                           *
 *                                                                                                                           *
 *                                                                                                                           *
 *                                                       Final Results                                                       *
 *                                                                                                                           *
 *****************************************************************************************************************************

::    Total SCF energy                               -108.9679927365
      One-electron energy                            -198.7399966959
      Two-electron energy                              63.8423206251
      Nuclear repulsion energy                         25.9296833342
      Kinetic energy (interpolated)                   109.5715523782
      Virial theorem                                    0.9944916392
      Total spin, S(S+1)                                0.0000000000
      Total spin, S                                     0.0000000000
      Max non-diagonal density matrix element           0.0000015899
      Max non-diagonal Fock matrix element              0.0000004427


      All orbitals with orbital energies smaller than  E(LUMO)+0.5 are printed

++    Molecular orbitals:
      -------------------

      Title: SCF orbitals

      Molecular orbitals for symmetry species 1: a  

          Orbital            1         2         3         4         5         6         7         8         9        10    
          Energy          -15.6458  -15.6390   -1.5415   -0.7445   -0.6580   -0.6580   -0.6408    0.2121    0.2121    0.4330
          Occ. No.          2.0000    2.0000    2.0000    2.0000    2.0000    2.0000    2.0000    0.0000    0.0000    0.0000

        1 N1     1s         0.7049   -0.7085   -0.0360   -0.0027   -0.0000   -0.0000    0.0071   -0.0000    0.0000   -0.0638
        2 N1     2s         0.0013   -0.0003    0.6011   -0.6311    0.0000   -0.0000    0.2397   -0.0000    0.0000   -0.5103
        3 N1     *s         0.0014   -0.0010   -0.0028    0.0018    0.0000    0.0000   -0.0029    0.0000   -0.0000    0.0029
        4 N1     *s        -0.0011   -0.0066   -0.1546   -0.0609    0.0000   -0.0000    0.1925    0.0000   -0.0000   -8.2820
        5 N1     2px       -0.0000    0.0000    0.0000    0.0000    0.6449   -0.0000   -0.0000   -0.0000   -0.5924   -0.0000
        6 N1     *px        0.0000   -0.0000   -0.0000   -0.0000   -0.0172    0.0000   -0.0000   -0.0000   -0.0050   -0.0000
        7 N1     *px        0.0000   -0.0000   -0.0000   -0.0000   -0.0587    0.0000   -0.0000   -0.0000   -0.6635    0.0000
        8 N1     2py        0.0000   -0.0000   -0.0000   -0.0000    0.0000    0.6449   -0.0000   -0.5924    0.0000    0.0000
        9 N1     *py       -0.0000    0.0000   -0.0000    0.0000   -0.0000   -0.0172    0.0000   -0.0050    0.0000    0.0000
       10 N1     *py       -0.0000    0.0000   -0.0000    0.0000   -0.0000   -0.0587    0.0000   -0.6635    0.0000   -0.0000
       11 N1     2pz        0.0058   -0.0041    0.4002    0.3432   -0.0000    0.0000   -0.7160   -0.0000    0.0000    0.0977
       12 N1     *pz       -0.0033    0.0014   -0.0650   -0.0071   -0.0000    0.0000    0.0673    0.0000   -0.0000   -0.3146
       13 N1     *pz       -0.0020   -0.0012   -0.1220   -0.0272   -0.0000   -0.0000    0.0995   -0.0000   -0.0000   -4.1392
       14 N1     *d2-      -0.0000    0.0000    0.0000   -0.0000    0.0000   -0.0000    0.0000   -0.0000   -0.0000   -0.0000
       15 N1     *d2-       0.0000   -0.0000    0.0000    0.0000   -0.0000    0.0000   -0.0000   -0.0000    0.0000    0.0000
       16 N1     *d1-      -0.0000    0.0000    0.0000   -0.0000    0.0000    0.0241   -0.0000    0.0159   -0.0000   -0.0000
       17 N1     *d1-      -0.0000    0.0000    0.0000   -0.0000    0.0000    0.0375   -0.0000   -0.0306    0.0000    0.0000
       18 N1     *d0        0.0007   -0.0010    0.0233    0.0037    0.0000   -0.0000   -0.0198   -0.0000    0.0000    0.0205
       19 N1     *d0       -0.0006   -0.0006    0.0177    0.0091   -0.0000    0.0000   -0.0128   -0.0000    0.0000   -0.2777
       20 N1     *d1+       0.0000   -0.0000    0.0000    0.0000    0.0241   -0.0000    0.0000    0.0000    0.0159   -0.0000
       21 N1     *d1+       0.0000    0.0000    0.0000    0.0000    0.0375   -0.0000    0.0000   -0.0000   -0.0306   -0.0000
       22 N1     *d2+       0.0000   -0.0000    0.0000   -0.0000   -0.0000   -0.0000   -0.0000    0.0000   -0.0000    0.0000
       23 N1     *d2+      -0.0000   -0.0000   -0.0000    0.0000    0.0000    0.0000    0.0000   -0.0000   -0.0000   -0.0000
       24 N1     *f3-      -0.0000    0.0000    0.0000   -0.0000   -0.0000   -0.0000    0.0000    0.0000    0.0000    0.0000
       25 N1     *f2-       0.0000   -0.0000    0.0000    0.0000    0.0000   -0.0000    0.0000    0.0000   -0.0000   -0.0000
       26 N1     *f1-      -0.0000    0.0000    0.0000   -0.0000    0.0000    0.0088   -0.0000   -0.0039    0.0000    0.0000
       27 N1     *f0       -0.0001   -0.0005    0.0077    0.0001    0.0000   -0.0000   -0.0047   -0.0000    0.0000   -0.0145
       28 N1     *f1+       0.0000   -0.0000   -0.0000    0.0000    0.0088   -0.0000    0.0000   -0.0000   -0.0039    0.0000
       29 N1     *f2+      -0.0000   -0.0000   -0.0000    0.0000   -0.0000   -0.0000    0.0000    0.0000    0.0000    0.0000
       30 N1     *f3+      -0.0000    0.0000   -0.0000    0.0000    0.0000   -0.0000    0.0000    0.0000    0.0000    0.0000
       31 N2     1s         0.7081    0.7054   -0.0360    0.0027    0.0000    0.0000    0.0071   -0.0000    0.0000    0.0637
       32 N2     2s         0.0015    0.0004    0.6012    0.6311   -0.0000    0.0000    0.2397   -0.0000    0.0000    0.5101
       33 N2     *s         0.0013    0.0010   -0.0028   -0.0018   -0.0000   -0.0000   -0.0029    0.0000   -0.0000   -0.0029
       34 N2     *s        -0.0010    0.0066   -0.1546    0.0609   -0.0000    0.0000    0.1924    0.0000    0.0000    8.2821
       35 N2     2px       -0.0000   -0.0000   -0.0000    0.0000    0.6449   -0.0000    0.0000    0.0000    0.5924    0.0000
       36 N2     *px       -0.0000   -0.0000   -0.0000   -0.0000   -0.0172    0.0000   -0.0000    0.0000    0.0050    0.0000
       37 N2     *px        0.0000   -0.0000    0.0000   -0.0000   -0.0587    0.0000   -0.0000    0.0000    0.6635   -0.0000
       38 N2     2py        0.0000    0.0000    0.0000   -0.0000    0.0000    0.6449   -0.0000    0.5924   -0.0000   -0.0000
       39 N2     *py       -0.0000   -0.0000    0.0000    0.0000   -0.0000   -0.0172    0.0000    0.0050   -0.0000   -0.0000
       40 N2     *py       -0.0000   -0.0000   -0.0000    0.0000   -0.0000   -0.0587    0.0000    0.6635   -0.0000    0.0000
       41 N2     2pz       -0.0058   -0.0041   -0.4002    0.3433   -0.0000    0.0000    0.7160    0.0000   -0.0000    0.0978
       42 N2     *pz        0.0032    0.0014    0.0650   -0.0071    0.0000   -0.0000   -0.0673   -0.0000   -0.0000   -0.3145
       43 N2     *pz        0.0020   -0.0012    0.1219   -0.0272    0.0000   -0.0000   -0.0994    0.0000   -0.0000   -4.1398
       44 N2     *d2-      -0.0000    0.0000   -0.0000   -0.0000    0.0000   -0.0000    0.0000    0.0000   -0.0000    0.0000
       45 N2     *d2-      -0.0000    0.0000   -0.0000   -0.0000    0.0000   -0.0000   -0.0000    0.0000   -0.0000    0.0000
       46 N2     *d1-      -0.0000   -0.0000   -0.0000    0.0000   -0.0000   -0.0241    0.0000    0.0159   -0.0000   -0.0000
       47 N2     *d1-      -0.0000    0.0000   -0.0000    0.0000   -0.0000   -0.0375    0.0000   -0.0306    0.0000    0.0000
       48 N2     *d0        0.0007    0.0010    0.0233   -0.0037    0.0000   -0.0000   -0.0198   -0.0000    0.0000   -0.0205
       49 N2     *d0       -0.0006    0.0006    0.0178   -0.0091    0.0000   -0.0000   -0.0128   -0.0000    0.0000    0.2778
       50 N2     *d1+       0.0000    0.0000    0.0000   -0.0000   -0.0241    0.0000   -0.0000    0.0000    0.0159    0.0000
       51 N2     *d1+       0.0000    0.0000    0.0000   -0.0000   -0.0375    0.0000   -0.0000   -0.0000   -0.0306    0.0000
       52 N2     *d2+       0.0000   -0.0000   -0.0000   -0.0000   -0.0000   -0.0000    0.0000    0.0000    0.0000   -0.0000
       53 N2     *d2+       0.0000    0.0000    0.0000   -0.0000   -0.0000   -0.0000    0.0000    0.0000    0.0000   -0.0000
       54 N2     *f3-      -0.0000   -0.0000    0.0000    0.0000    0.0000    0.0000   -0.0000    0.0000   -0.0000    0.0000
       55 N2     *f2-       0.0000   -0.0000   -0.0000    0.0000   -0.0000   -0.0000    0.0000   -0.0000    0.0000   -0.0000
       56 N2     *f1-       0.0000    0.0000   -0.0000   -0.0000    0.0000    0.0088    0.0000    0.0039   -0.0000    0.0000
       57 N2     *f0        0.0001   -0.0005   -0.0077    0.0001   -0.0000    0.0000    0.0047    0.0000   -0.0000   -0.0145
       58 N2     *f1+      -0.0000   -0.0000    0.0000    0.0000    0.0088   -0.0000   -0.0000    0.0000    0.0039   -0.0000
       59 N2     *f2+      -0.0000   -0.0000   -0.0000    0.0000   -0.0000    0.0000    0.0000   -0.0000   -0.0000   -0.0000
       60 N2     *f3+      -0.0000   -0.0000    0.0000    0.0000    0.0000    0.0000   -0.0000   -0.0000   -0.0000    0.0000

          Orbital           11        12        13        14    
          Energy            0.5455    0.5455    0.5484    0.6834
          Occ. No.          0.0000    0.0000    0.0000    0.0000

        1 N1     1s         0.0000   -0.0000    0.0792    0.3205
        2 N1     2s         0.0000   -0.0000    0.2367    1.5526
        3 N1     *s         0.0000   -0.0000    0.0543   -0.0954
        4 N1     *s         0.0000    0.0000    0.1396   -1.5077
        5 N1     2px       -0.0000   -0.3605   -0.0000   -0.0000
        6 N1     *px       -0.0000   -0.3138   -0.0000   -0.0000
        7 N1     *px        0.0000    0.8172    0.0000    0.0000
        8 N1     2py       -0.3605    0.0000    0.0000    0.0000
        9 N1     *py       -0.3138    0.0000    0.0000    0.0000
       10 N1     *py        0.8172   -0.0000   -0.0000   -0.0000
       11 N1     2pz        0.0000   -0.0000    0.3452   -0.1544
       12 N1     *pz        0.0000   -0.0000    0.1899   -0.1032
       13 N1     *pz       -0.0000    0.0000   -1.4615    0.0173
       14 N1     *d2-      -0.0000    0.0000   -0.0000   -0.0000
       15 N1     *d2-       0.0000   -0.0000   -0.0000   -0.0000
       16 N1     *d1-      -0.0186    0.0000    0.0000    0.0000
       17 N1     *d1-      -0.0600    0.0000    0.0000   -0.0000
       18 N1     *d0        0.0000   -0.0000    0.0454    0.0063
       19 N1     *d0       -0.0000    0.0000   -0.1692    0.1305
       20 N1     *d1+      -0.0000   -0.0186   -0.0000   -0.0000
       21 N1     *d1+      -0.0000   -0.0599   -0.0000    0.0000
       22 N1     *d2+      -0.0000   -0.0000    0.0000    0.0000
       23 N1     *d2+       0.0000    0.0000   -0.0000   -0.0000
       24 N1     *f3-       0.0000   -0.0000   -0.0000   -0.0000
       25 N1     *f2-      -0.0000    0.0000   -0.0000   -0.0000
       26 N1     *f1-       0.0031   -0.0000    0.0000   -0.0000
       27 N1     *f0       -0.0000    0.0000   -0.0305   -0.0074
       28 N1     *f1+       0.0000    0.0031    0.0000    0.0000
       29 N1     *f2+      -0.0000   -0.0000   -0.0000   -0.0000
       30 N1     *f3+      -0.0000   -0.0000   -0.0000    0.0000
       31 N2     1s         0.0000   -0.0000    0.0792    0.3204
       32 N2     2s         0.0000   -0.0000    0.2368    1.5522
       33 N2     *s         0.0000   -0.0000    0.0544   -0.0953
       34 N2     *s        -0.0000   -0.0000    0.1407   -1.5079
       35 N2     2px       -0.0000   -0.3606   -0.0000   -0.0000
       36 N2     *px       -0.0000   -0.3138   -0.0000   -0.0000
       37 N2     *px        0.0000    0.8172    0.0000    0.0000
       38 N2     2py       -0.3606    0.0000    0.0000   -0.0000
       39 N2     *py       -0.3138    0.0000    0.0000    0.0000
       40 N2     *py        0.8172   -0.0000   -0.0000    0.0000
       41 N2     2pz       -0.0000    0.0000   -0.3451    0.1544
       42 N2     *pz       -0.0000    0.0000   -0.1897    0.1035
       43 N2     *pz        0.0000   -0.0000    1.4607   -0.0172
       44 N2     *d2-      -0.0000    0.0000    0.0000    0.0000
       45 N2     *d2-       0.0000   -0.0000   -0.0000   -0.0000
       46 N2     *d1-       0.0186   -0.0000   -0.0000   -0.0000
       47 N2     *d1-       0.0599   -0.0000   -0.0000   -0.0000
       48 N2     *d0        0.0000   -0.0000    0.0453    0.0062
       49 N2     *d0       -0.0000    0.0000   -0.1693    0.1304
       50 N2     *d1+       0.0000    0.0186    0.0000    0.0000
       51 N2     *d1+       0.0000    0.0599    0.0000    0.0000
       52 N2     *d2+      -0.0000   -0.0000   -0.0000   -0.0000
       53 N2     *d2+       0.0000    0.0000    0.0000   -0.0000
       54 N2     *f3-       0.0000   -0.0000   -0.0000    0.0000
       55 N2     *f2-       0.0000   -0.0000    0.0000   -0.0000
       56 N2     *f1-       0.0031   -0.0000   -0.0000    0.0000
       57 N2     *f0        0.0000   -0.0000    0.0305    0.0074
       58 N2     *f1+       0.0000    0.0031    0.0000   -0.0000
       59 N2     *f2+       0.0000    0.0000   -0.0000   -0.0000
       60 N2     *f3+      -0.0000   -0.0000    0.0000    0.0000
--


++    Molecular charges:
      ------------------

      Mulliken charges per centre and basis function type
      ---------------------------------------------------

                N1      N2    
      1s       1.9991  1.9992
      2s       1.7159  1.7160
      2px      1.0719  1.0719
      2pz      1.5591  1.5591
      2py      1.0719  1.0719
      *s       0.0069  0.0069
      *px     -0.1095 -0.1095
      *pz     -0.3014 -0.3013
      *py     -0.1096 -0.1095
      *d2+     0.0000  0.0000
      *d1+     0.0345  0.0345
      *d0      0.0190  0.0191
      *d1-     0.0345  0.0345
      *d2-    -0.0000  0.0000
      *f3+     0.0000  0.0000
      *f2+    -0.0000 -0.0000
      *f1+     0.0031  0.0031
      *f0      0.0012  0.0012
      *f1-     0.0031  0.0031
      *f2-     0.0000  0.0000
      *f3-     0.0000 -0.0000
      Total    6.9999  7.0001

      N-E      0.0001 -0.0001

      Total electronic charge=   14.000000

      Total            charge=   -0.000000
--


++    Molecular properties:
      ---------------------

      Charge (e):
                      =   -0.0000
      Dipole Moment (Debye):
      Origin of the operator (Ang)=    0.0000    0.0000    0.0000
                   X=  3.6845E-12               Y= -3.2089E-12               Z=  2.6712E-05           Total=  2.6712E-05
      Quadrupole Moment (Debye*Ang):
      Origin of the operator (Ang)=    0.0000    0.0000    0.5000
                  XX= -9.9051E+00              XY= -1.3106E-14              XZ= -5.4275E-12              YY= -9.9051E+00
                  YZ=  3.9447E-12              ZZ= -1.1583E+01
      In traceless form (Debye*Ang)
                  XX=  8.3888E-01              XY= -1.9659E-14              XZ= -8.1413E-12              YY=  8.3888E-01
                  YZ=  5.9171E-12              ZZ= -1.6778E+00
--


      Input file to MOLDEN was generated!

 ###############################################################################
 ###############################################################################
 ###                                                                         ###
 ###                                                                         ###
 ###    WARNING: RunFile label nBas                                          ###
 ###    was used       74 times                                              ###
 ###                                                                         ###
 ###                                                                         ###
 ###############################################################################
 ###############################################################################
--- Stop Module: scf at Tue Apr  9 00:41:39 2024 /rc=_RC_ALL_IS_WELL_ ---
*** files: n2.GssOrb n2.guessorb.h5 n2.guessorb.molden n2.scf.molden n2.ScfOrb n2.scf.h5 xmldump
    saved to directory /public/home/xzzeng/work/HQC/N2/cc-pvtz/NO/PES/entropy/1.0/results/work_dir/n2/initial
--- Module scf spent 1 second ---

.##################.
.# Happy landing! #.
.##################.

    Timing: Wall=2.36 User=1.52 System=0.22
