[Molden Format]
[N_Atoms]
                    2
[Atoms] (AU)
N1          1      7           0.00000000      0.00000000      0.00000000
N2          2      7           0.00000000      0.00000000      3.40150702
[5D]
[7F]
[Charge] (Mulliken)
   0.0000000000000000     
   0.0000000000000000     
[GTO] (AU)
   1
   s  10
  1.142000000E+04  5.229996559E-04
  1.712000000E+03  4.044997339E-03
  3.893000000E+02  2.077498633E-02
  1.100000000E+02  8.072694689E-02
  3.557000000E+01  2.330738467E-01
  1.254000000E+01  4.335007148E-01
  4.644000000E+00  3.474717714E-01
  1.293000000E+00  4.126197285E-02
  5.118000000E-01 -8.507994403E-03
  1.787000000E-01  2.383998432E-03
   s  10
  1.142000000E+04 -1.149999544E-04
  1.712000000E+03 -8.949996452E-04
  3.893000000E+02 -4.623998167E-03
  1.100000000E+02 -1.852799265E-02
  3.557000000E+01 -5.733897727E-02
  1.254000000E+01 -1.320759476E-01
  4.644000000E+00 -1.725099316E-01
  1.293000000E+00  1.518139398E-01
  5.118000000E-01  5.999437621E-01
  1.787000000E-01  3.874618464E-01
   s   1
  1.293000000E+00  1.000000000E+00
   s   1
  1.787000000E-01  1.000000000E+00
   p   5
  2.663000000E+01  1.467000345E-02
  5.948000000E+00  9.176402155E-02
  1.742000000E+00  2.986830701E-01
  5.550000000E-01  4.984871171E-01
  1.725000000E-01  3.370230791E-01
   p   1
  5.550000000E-01  1.000000000E+00
   p   1
  1.725000000E-01  1.000000000E+00
   d   1
  1.654000000E+00  1.000000000E+00
   d   1
  4.690000000E-01  1.000000000E+00
   f   1
  1.093000000E+00  1.000000000E+00
 
   2
   s  10
  1.142000000E+04  5.229996559E-04
  1.712000000E+03  4.044997339E-03
  3.893000000E+02  2.077498633E-02
  1.100000000E+02  8.072694689E-02
  3.557000000E+01  2.330738467E-01
  1.254000000E+01  4.335007148E-01
  4.644000000E+00  3.474717714E-01
  1.293000000E+00  4.126197285E-02
  5.118000000E-01 -8.507994403E-03
  1.787000000E-01  2.383998432E-03
   s  10
  1.142000000E+04 -1.149999544E-04
  1.712000000E+03 -8.949996452E-04
  3.893000000E+02 -4.623998167E-03
  1.100000000E+02 -1.852799265E-02
  3.557000000E+01 -5.733897727E-02
  1.254000000E+01 -1.320759476E-01
  4.644000000E+00 -1.725099316E-01
  1.293000000E+00  1.518139398E-01
  5.118000000E-01  5.999437621E-01
  1.787000000E-01  3.874618464E-01
   s   1
  1.293000000E+00  1.000000000E+00
   s   1
  1.787000000E-01  1.000000000E+00
   p   5
  2.663000000E+01  1.467000345E-02
  5.948000000E+00  9.176402155E-02
  1.742000000E+00  2.986830701E-01
  5.550000000E-01  4.984871171E-01
  1.725000000E-01  3.370230791E-01
   p   1
  5.550000000E-01  1.000000000E+00
   p   1
  1.725000000E-01  1.000000000E+00
   d   1
  1.654000000E+00  1.000000000E+00
   d   1
  4.690000000E-01  1.000000000E+00
   f   1
  1.093000000E+00  1.000000000E+00
 
[MO]
Sym=     1a  
Ene=   -15.6390
Spin= Alpha
Occup=    2.00000
   1         0.70755119
   2         0.00393529
   3        -0.00164739
   4         0.00194752
   5         0.00000000
   6        -0.00000000
   7         0.00066802
   8        -0.00000000
   9         0.00000000
  10        -0.00001167
  11        -0.00000000
  12        -0.00000000
  13        -0.00003109
  14         0.00000000
  15         0.00000000
  16         0.00000000
  17         0.00000000
  18         0.00000000
  19        -0.00000000
  20        -0.00000000
  21        -0.00000000
  22        -0.00000000
  23        -0.00000000
  24        -0.00000000
  25        -0.00000000
  26        -0.00000000
  27        -0.00000000
  28         0.00000000
  29        -0.00000000
  30        -0.00000000
  31         0.70755119
  32         0.00393529
  33        -0.00164739
  34         0.00194752
  35         0.00000000
  36        -0.00000000
  37        -0.00066802
  38         0.00000000
  39        -0.00000000
  40         0.00001167
  41        -0.00000000
  42         0.00000000
  43         0.00003109
  44        -0.00000000
  45        -0.00000000
  46        -0.00000000
  47         0.00000000
  48        -0.00000000
  49         0.00000000
  50         0.00000000
  51        -0.00000000
  52        -0.00000000
  53         0.00000000
  54        -0.00000000
  55        -0.00000000
  56         0.00000000
  57         0.00000000
  58         0.00000000
  59         0.00000000
  60        -0.00000000
Sym=     2a  
Ene=   -15.6300
Spin= Alpha
Occup=    2.00000
   1        -0.70778062
   2        -0.00294549
   3         0.00165786
   4        -0.00194239
   5         0.00000000
   6        -0.00000000
   7         0.00064877
   8        -0.00000000
   9         0.00000000
  10        -0.00001133
  11        -0.00000000
  12         0.00000000
  13        -0.00003020
  14        -0.00000000
  15        -0.00000000
  16         0.00000000
  17         0.00000000
  18         0.00000000
  19        -0.00000000
  20         0.00000000
  21        -0.00000000
  22         0.00000000
  23         0.00000000
  24         0.00000000
  25         0.00000000
  26        -0.00000000
  27        -0.00000000
  28        -0.00000000
  29         0.00000000
  30         0.00000000
  31         0.70778062
  32         0.00294549
  33        -0.00165786
  34         0.00194239
  35         0.00000000
  36        -0.00000000
  37         0.00064877
  38        -0.00000000
  39         0.00000000
  40        -0.00001133
  41         0.00000000
  42         0.00000000
  43        -0.00003020
  44        -0.00000000
  45        -0.00000000
  46         0.00000000
  47        -0.00000000
  48        -0.00000000
  49        -0.00000000
  50         0.00000000
  51        -0.00000000
  52        -0.00000000
  53        -0.00000000
  54        -0.00000000
  55        -0.00000000
  56         0.00000000
  57        -0.00000000
  58        -0.00000000
  59        -0.00000000
  60        -0.00000000
Sym=     3a  
Ene=    -1.1540
Spin= Alpha
Occup=    2.00000
   1        -0.01868917
   2         0.59583824
   3         0.00601612
   4         0.00341021
   5         0.00000000
   6        -0.00000000
   7         0.17551507
   8        -0.00000000
   9         0.00000000
  10        -0.00306492
  11        -0.00000000
  12        -0.00000000
  13        -0.00816976
  14         0.00000000
  15         0.00000000
  16        -0.00000000
  17        -0.00000000
  18        -0.00000000
  19         0.00000000
  20        -0.00000000
  21         0.00000000
  22         0.00000000
  23         0.00000000
  24        -0.00000000
  25        -0.00000000
  26        -0.00000000
  27        -0.00000000
  28        -0.00000000
  29         0.00000000
  30        -0.00000000
  31        -0.01868917
  32         0.59583824
  33         0.00601612
  34         0.00341021
  35         0.00000000
  36        -0.00000000
  37        -0.17551507
  38        -0.00000000
  39         0.00000000
  40         0.00306492
  41        -0.00000000
  42        -0.00000000
  43         0.00816976
  44         0.00000000
  45        -0.00000000
  46        -0.00000000
  47        -0.00000000
  48         0.00000000
  49        -0.00000000
  50        -0.00000000
  51         0.00000000
  52         0.00000000
  53         0.00000000
  54         0.00000000
  55         0.00000000
  56         0.00000000
  57        -0.00000000
  58        -0.00000000
  59         0.00000000
  60        -0.00000000
Sym=     4a  
Ene=    -0.8587
Spin= Alpha
Occup=    2.00000
   1         0.00555107
   2        -0.68210018
   3        -0.00684933
   4        -0.00394702
   5         0.00000000
   6         0.00000000
   7         0.22277211
   8        -0.00000000
   9        -0.00000000
  10        -0.00389014
  11        -0.00000000
  12        -0.00000000
  13        -0.01036945
  14        -0.00000000
  15        -0.00000000
  16        -0.00000000
  17        -0.00000000
  18        -0.00000000
  19        -0.00000000
  20         0.00000000
  21         0.00000000
  22        -0.00000000
  23        -0.00000000
  24        -0.00000000
  25         0.00000000
  26         0.00000000
  27        -0.00000000
  28         0.00000000
  29        -0.00000000
  30        -0.00000000
  31        -0.00555107
  32         0.68210018
  33         0.00684933
  34         0.00394702
  35         0.00000000
  36         0.00000000
  37         0.22277211
  38        -0.00000000
  39        -0.00000000
  40        -0.00389014
  41         0.00000000
  42        -0.00000000
  43        -0.01036945
  44         0.00000000
  45        -0.00000000
  46        -0.00000000
  47        -0.00000000
  48        -0.00000000
  49         0.00000000
  50         0.00000000
  51         0.00000000
  52        -0.00000000
  53        -0.00000000
  54         0.00000000
  55        -0.00000000
  56         0.00000000
  57         0.00000000
  58         0.00000000
  59        -0.00000000
  60        -0.00000000
Sym=     5a  
Ene=    -0.6381
Spin= Alpha
Occup=    2.00000
   1         0.00851424
   2         0.28500057
   3         0.00283601
   4         0.00167865
   5         0.00000000
   6         0.00000000
   7        -0.66387360
   8        -0.00000000
   9        -0.00000000
  10         0.01159283
  11        -0.00000000
  12        -0.00000000
  13         0.03090155
  14         0.00000000
  15         0.00000000
  16        -0.00000000
  17         0.00000000
  18        -0.00000000
  19        -0.00000000
  20        -0.00000000
  21         0.00000000
  22        -0.00000000
  23         0.00000000
  24        -0.00000000
  25         0.00000000
  26        -0.00000000
  27        -0.00000000
  28        -0.00000000
  29         0.00000000
  30        -0.00000000
  31         0.00851424
  32         0.28500057
  33         0.00283601
  34         0.00167865
  35         0.00000000
  36         0.00000000
  37         0.66387360
  38         0.00000000
  39        -0.00000000
  40        -0.01159283
  41        -0.00000000
  42        -0.00000000
  43        -0.03090155
  44        -0.00000000
  45         0.00000000
  46        -0.00000000
  47        -0.00000000
  48        -0.00000000
  49         0.00000000
  50         0.00000000
  51         0.00000000
  52        -0.00000000
  53         0.00000000
  54        -0.00000000
  55        -0.00000000
  56        -0.00000000
  57        -0.00000000
  58        -0.00000000
  59        -0.00000000
  60        -0.00000000
Sym=     6a  
Ene=    -0.6277
Spin= Alpha
Occup=    2.00000
   1        -0.00000000
   2        -0.00000000
   3         0.00000000
   4        -0.00000000
   5         0.67630637
   6         0.21734676
   7         0.00000000
   8        -0.01180994
   9        -0.00379540
  10         0.00000000
  11        -0.03148026
  12        -0.01011691
  13        -0.00000000
  14         0.00000000
  15         0.00000000
  16        -0.00000000
  17         0.00000000
  18         0.00000000
  19        -0.00000000
  20        -0.00000000
  21         0.00000000
  22        -0.00000000
  23         0.00000000
  24         0.00000000
  25        -0.00000000
  26        -0.00000000
  27         0.00000000
  28         0.00000000
  29        -0.00000000
  30         0.00000000
  31         0.00000000
  32        -0.00000000
  33        -0.00000000
  34         0.00000000
  35         0.67630637
  36         0.21734676
  37        -0.00000000
  38        -0.01180994
  39        -0.00379540
  40         0.00000000
  41        -0.03148026
  42        -0.01011691
  43        -0.00000000
  44        -0.00000000
  45        -0.00000000
  46         0.00000000
  47         0.00000000
  48        -0.00000000
  49         0.00000000
  50         0.00000000
  51        -0.00000000
  52         0.00000000
  53        -0.00000000
  54        -0.00000000
  55        -0.00000000
  56        -0.00000000
  57         0.00000000
  58         0.00000000
  59        -0.00000000
  60         0.00000000
Sym=     7a  
Ene=    -0.6277
Spin= Alpha
Occup=    2.00000
   1        -0.00000000
   2        -0.00000000
   3         0.00000000
   4         0.00000000
   5        -0.21734676
   6         0.67630637
   7        -0.00000000
   8         0.00379540
   9        -0.01180994
  10        -0.00000000
  11         0.01011691
  12        -0.03148026
  13         0.00000000
  14        -0.00000000
  15        -0.00000000
  16         0.00000000
  17        -0.00000000
  18         0.00000000
  19         0.00000000
  20        -0.00000000
  21         0.00000000
  22         0.00000000
  23        -0.00000000
  24         0.00000000
  25         0.00000000
  26        -0.00000000
  27         0.00000000
  28         0.00000000
  29         0.00000000
  30         0.00000000
  31        -0.00000000
  32        -0.00000000
  33         0.00000000
  34         0.00000000
  35        -0.21734676
  36         0.67630637
  37        -0.00000000
  38         0.00379540
  39        -0.01180994
  40         0.00000000
  41         0.01011691
  42        -0.03148026
  43        -0.00000000
  44        -0.00000000
  45         0.00000000
  46        -0.00000000
  47        -0.00000000
  48        -0.00000000
  49         0.00000000
  50         0.00000000
  51         0.00000000
  52         0.00000000
  53         0.00000000
  54        -0.00000000
  55         0.00000000
  56        -0.00000000
  57        -0.00000000
  58         0.00000000
  59        -0.00000000
  60         0.00000000
Sym=     8a  
Ene=    -0.5135
Spin= Alpha
Occup=    0.00000
   1        -0.00000000
   2         0.00000000
   3         0.00000000
   4         0.00000000
   5         0.33608988
   6        -0.70990429
   7        -0.00000000
   8        -0.00586894
   9         0.01239664
  10         0.00000000
  11        -0.01564409
  12         0.03304415
  13         0.00000000
  14        -0.00000000
  15        -0.00000000
  16         0.00000000
  17         0.00000000
  18         0.00000000
  19         0.00000000
  20        -0.00000000
  21        -0.00000000
  22        -0.00000000
  23        -0.00000000
  24         0.00000000
  25         0.00000000
  26        -0.00000000
  27        -0.00000000
  28         0.00000000
  29        -0.00000000
  30         0.00000000
  31        -0.00000000
  32        -0.00000000
  33         0.00000000
  34        -0.00000000
  35        -0.33608988
  36         0.70990429
  37         0.00000000
  38         0.00586894
  39        -0.01239664
  40         0.00000000
  41         0.01564409
  42        -0.03304415
  43         0.00000000
  44         0.00000000
  45        -0.00000000
  46         0.00000000
  47        -0.00000000
  48        -0.00000000
  49        -0.00000000
  50         0.00000000
  51        -0.00000000
  52         0.00000000
  53         0.00000000
  54        -0.00000000
  55         0.00000000
  56        -0.00000000
  57        -0.00000000
  58        -0.00000000
  59         0.00000000
  60        -0.00000000
Sym=     9a  
Ene=    -0.5135
Spin= Alpha
Occup=    0.00000
   1         0.00000000
   2         0.00000000
   3        -0.00000000
   4        -0.00000000
   5        -0.70990429
   6        -0.33608988
   7         0.00000000
   8         0.01239664
   9         0.00586894
  10         0.00000000
  11         0.03304415
  12         0.01564409
  13         0.00000000
  14         0.00000000
  15         0.00000000
  16         0.00000000
  17         0.00000000
  18         0.00000000
  19         0.00000000
  20         0.00000000
  21        -0.00000000
  22        -0.00000000
  23        -0.00000000
  24        -0.00000000
  25        -0.00000000
  26         0.00000000
  27        -0.00000000
  28         0.00000000
  29         0.00000000
  30         0.00000000
  31        -0.00000000
  32        -0.00000000
  33         0.00000000
  34         0.00000000
  35         0.70990429
  36         0.33608988
  37        -0.00000000
  38        -0.01239664
  39        -0.00586894
  40         0.00000000
  41        -0.03304415
  42        -0.01564409
  43         0.00000000
  44        -0.00000000
  45         0.00000000
  46        -0.00000000
  47        -0.00000000
  48        -0.00000000
  49        -0.00000000
  50        -0.00000000
  51        -0.00000000
  52         0.00000000
  53        -0.00000000
  54         0.00000000
  55        -0.00000000
  56         0.00000000
  57        -0.00000000
  58         0.00000000
  59        -0.00000000
  60        -0.00000000
Sym=    10a  
Ene=    -0.3802
Spin= Alpha
Occup=    0.00000
   1         0.01894025
   2         0.40422286
   3         0.00400602
   4         0.00239953
   5         0.00000000
   6         0.00000000
   7         0.84913403
   8        -0.00000000
   9        -0.00000000
  10        -0.01482793
  11         0.00000000
  12        -0.00000000
  13        -0.03952493
  14        -0.00000000
  15        -0.00000000
  16         0.00000000
  17         0.00000000
  18         0.00000000
  19         0.00000000
  20         0.00000000
  21        -0.00000000
  22         0.00000000
  23         0.00000000
  24         0.00000000
  25        -0.00000000
  26         0.00000000
  27         0.00000000
  28         0.00000000
  29         0.00000000
  30         0.00000000
  31        -0.01894025
  32        -0.40422286
  33        -0.00400602
  34        -0.00239953
  35         0.00000000
  36         0.00000000
  37         0.84913403
  38        -0.00000000
  39        -0.00000000
  40        -0.01482793
  41        -0.00000000
  42        -0.00000000
  43        -0.03952493
  44         0.00000000
  45        -0.00000000
  46         0.00000000
  47         0.00000000
  48         0.00000000
  49        -0.00000000
  50         0.00000000
  51         0.00000000
  52         0.00000000
  53         0.00000000
  54         0.00000000
  55        -0.00000000
  56         0.00000000
  57        -0.00000000
  58        -0.00000000
  59         0.00000000
  60         0.00000000
Sym=    11a  
Ene=     3.8461
Spin= Alpha
Occup=    0.00000
   1        -0.04398469
   2        -0.14109591
   3        -0.09990262
   4         1.68618907
   5        -0.00000000
   6        -0.00000000
   7         0.04130341
   8         0.00000000
   9         0.00000000
  10        -0.60796824
  11        -0.00000000
  12        -0.00000000
  13         2.12562562
  14        -0.03543350
  15        -0.00000000
  16        -0.00000000
  17         0.00000000
  18         0.00000000
  19         0.28692844
  20         0.00000000
  21         0.00000000
  22        -0.00000000
  23        -0.00000000
  24         0.02691356
  25         0.00000000
  26         0.00000000
  27        -0.00000000
  28        -0.00000000
  29         0.00000000
  30        -0.00000000
  31         0.04398469
  32         0.14109591
  33         0.09990262
  34        -1.68618907
  35        -0.00000000
  36        -0.00000000
  37         0.04130341
  38         0.00000000
  39         0.00000000
  40        -0.60796824
  41        -0.00000000
  42        -0.00000000
  43         2.12562562
  44         0.03543350
  45         0.00000000
  46         0.00000000
  47         0.00000000
  48         0.00000000
  49        -0.28692844
  50        -0.00000000
  51        -0.00000000
  52        -0.00000000
  53        -0.00000000
  54         0.02691356
  55         0.00000000
  56         0.00000000
  57         0.00000000
  58        -0.00000000
  59         0.00000000
  60        -0.00000000
Sym=    12a  
Ene=     4.0123
Spin= Alpha
Occup=    0.00000
   1         0.00000000
   2         0.00000000
   3        -0.00000000
   4        -0.00000000
   5         0.04881179
   6        -0.07920910
   7         0.00000000
   8        -0.42018101
   9         0.68184672
  10        -0.00000000
  11         0.62206969
  12        -1.00946061
  13         0.00000000
  14         0.00000000
  15        -0.00166510
  16         0.00270204
  17        -0.00000000
  18        -0.00000000
  19        -0.00000000
  20         0.01396957
  21        -0.02266906
  22         0.00000000
  23         0.00000000
  24         0.00000000
  25         0.00509493
  26        -0.00826778
  27         0.00000000
  28        -0.00000000
  29         0.00000000
  30         0.00000000
  31         0.00000000
  32         0.00000000
  33         0.00000000
  34        -0.00000000
  35        -0.04881179
  36         0.07920910
  37        -0.00000000
  38         0.42018101
  39        -0.68184672
  40         0.00000000
  41        -0.62206969
  42         1.00946061
  43        -0.00000000
  44         0.00000000
  45        -0.00166510
  46         0.00270204
  47         0.00000000
  48         0.00000000
  49        -0.00000000
  50         0.01396957
  51        -0.02266906
  52        -0.00000000
  53         0.00000000
  54         0.00000000
  55        -0.00509493
  56         0.00826778
  57         0.00000000
  58         0.00000000
  59        -0.00000000
  60        -0.00000000
Sym=    13a  
Ene=     4.0123
Spin= Alpha
Occup=    0.00000
   1         0.00000000
   2         0.00000000
   3        -0.00000000
   4        -0.00000000
   5        -0.07920910
   6        -0.04881179
   7         0.00000000
   8         0.68184672
   9         0.42018101
  10        -0.00000000
  11        -1.00946061
  12        -0.62206969
  13         0.00000000
  14         0.00000000
  15         0.00270204
  16         0.00166510
  17         0.00000000
  18        -0.00000000
  19        -0.00000000
  20        -0.02266906
  21        -0.01396957
  22         0.00000000
  23         0.00000000
  24         0.00000000
  25        -0.00826778
  26        -0.00509493
  27         0.00000000
  28        -0.00000000
  29        -0.00000000
  30        -0.00000000
  31         0.00000000
  32         0.00000000
  33        -0.00000000
  34        -0.00000000
  35         0.07920910
  36         0.04881179
  37        -0.00000000
  38        -0.68184672
  39        -0.42018101
  40         0.00000000
  41         1.00946061
  42         0.62206969
  43        -0.00000000
  44         0.00000000
  45         0.00270204
  46         0.00166510
  47        -0.00000000
  48         0.00000000
  49        -0.00000000
  50        -0.02266906
  51        -0.01396957
  52        -0.00000000
  53         0.00000000
  54        -0.00000000
  55         0.00826778
  56         0.00509493
  57         0.00000000
  58        -0.00000000
  59         0.00000000
  60        -0.00000000
Sym=    14a  
Ene=     4.0236
Spin= Alpha
Occup=    0.00000
   1        -0.07196571
   2        -0.27266302
   3         0.07213659
   4         0.47368694
   5         0.00000000
   6         0.00000000
   7        -0.12106701
   8        -0.00000000
   9        -0.00000000
  10         0.83138687
  11        -0.00000000
  12         0.00000000
  13        -0.89887762
  14        -0.00845754
  15         0.00000000
  16         0.00000000
  17        -0.00000000
  18         0.00000000
  19         0.11986567
  20        -0.00000000
  21        -0.00000000
  22         0.00000000
  23        -0.00000000
  24        -0.00453606
  25        -0.00000000
  26        -0.00000000
  27         0.00000000
  28         0.00000000
  29        -0.00000000
  30        -0.00000000
  31        -0.07196571
  32        -0.27266302
  33         0.07213659
  34         0.47368694
  35         0.00000000
  36         0.00000000
  37         0.12106701
  38        -0.00000000
  39        -0.00000000
  40        -0.83138687
  41         0.00000000
  42         0.00000000
  43         0.89887762
  44        -0.00845754
  45        -0.00000000
  46        -0.00000000
  47         0.00000000
  48         0.00000000
  49         0.11986567
  50         0.00000000
  51         0.00000000
  52        -0.00000000
  53        -0.00000000
  54         0.00453606
  55        -0.00000000
  56        -0.00000000
  57         0.00000000
  58         0.00000000
  59        -0.00000000
  60        -0.00000000
Sym=    15a  
Ene=     4.0438
Spin= Alpha
Occup=    0.00000
   1         0.00000000
   2         0.00000000
   3        -0.00000000
   4        -0.00000000
   5        -0.07277620
   6         0.08218120
   7         0.00000000
   8         0.55067106
   9        -0.62183522
  10        -0.00000000
  11        -0.52587740
  12         0.59383743
  13         0.00000000
  14         0.00000000
  15        -0.00918244
  16         0.01036910
  17         0.00000000
  18        -0.00000000
  19        -0.00000000
  20         0.07118186
  21        -0.08038081
  22        -0.00000000
  23         0.00000000
  24        -0.00000000
  25         0.00595951
  26        -0.00672967
  27        -0.00000000
  28        -0.00000000
  29        -0.00000000
  30        -0.00000000
  31         0.00000000
  32         0.00000000
  33        -0.00000000
  34        -0.00000000
  35        -0.07277620
  36         0.08218120
  37        -0.00000000
  38         0.55067106
  39        -0.62183522
  40         0.00000000
  41        -0.52587740
  42         0.59383743
  43        -0.00000000
  44         0.00000000
  45         0.00918244
  46        -0.01036910
  47         0.00000000
  48        -0.00000000
  49        -0.00000000
  50        -0.07118186
  51         0.08038081
  52        -0.00000000
  53         0.00000000
  54         0.00000000
  55         0.00595951
  56        -0.00672967
  57         0.00000000
  58        -0.00000000
  59        -0.00000000
  60        -0.00000000
Sym=    16a  
Ene=     4.0438
Spin= Alpha
Occup=    0.00000
   1         0.00000000
   2         0.00000000
   3        -0.00000000
   4        -0.00000000
   5         0.08218120
   6         0.07277620
   7         0.00000000
   8        -0.62183522
   9        -0.55067106
  10        -0.00000000
  11         0.59383743
  12         0.52587740
  13         0.00000000
  14         0.00000000
  15         0.01036910
  16         0.00918244
  17         0.00000000
  18        -0.00000000
  19        -0.00000000
  20        -0.08038081
  21        -0.07118186
  22        -0.00000000
  23         0.00000000
  24         0.00000000
  25        -0.00672967
  26        -0.00595951
  27         0.00000000
  28        -0.00000000
  29         0.00000000
  30        -0.00000000
  31         0.00000000
  32         0.00000000
  33        -0.00000000
  34        -0.00000000
  35         0.08218120
  36         0.07277620
  37        -0.00000000
  38        -0.62183522
  39        -0.55067106
  40         0.00000000
  41         0.59383743
  42         0.52587740
  43        -0.00000000
  44         0.00000000
  45        -0.01036910
  46        -0.00918244
  47         0.00000000
  48         0.00000000
  49        -0.00000000
  50         0.08038081
  51         0.07118186
  52        -0.00000000
  53        -0.00000000
  54        -0.00000000
  55        -0.00672967
  56        -0.00595951
  57        -0.00000000
  58        -0.00000000
  59         0.00000000
  60         0.00000000
Sym=    17a  
Ene=     4.3546
Spin= Alpha
Occup=    0.00000
   1         0.53655456
   2         1.96445472
   3        -0.42642347
   4        -1.79464148
   5         0.00000000
   6        -0.00000000
   7        -0.00830815
   8        -0.00000000
   9         0.00000000
  10        -0.01563983
  11        -0.00000000
  12        -0.00000000
  13         0.05170342
  14        -0.03875333
  15        -0.00000000
  16         0.00000000
  17        -0.00000000
  18        -0.00000000
  19         0.32050951
  20         0.00000000
  21         0.00000000
  22         0.00000000
  23         0.00000000
  24        -0.00009084
  25        -0.00000000
  26        -0.00000000
  27        -0.00000000
  28        -0.00000000
  29         0.00000000
  30         0.00000000
  31         0.53655456
  32         1.96445472
  33        -0.42642347
  34        -1.79464148
  35         0.00000000
  36        -0.00000000
  37         0.00830815
  38        -0.00000000
  39         0.00000000
  40         0.01563983
  41         0.00000000
  42        -0.00000000
  43        -0.05170342
  44        -0.03875333
  45         0.00000000
  46         0.00000000
  47        -0.00000000
  48        -0.00000000
  49         0.32050951
  50        -0.00000000
  51        -0.00000000
  52         0.00000000
  53         0.00000000
  54         0.00009084
  55        -0.00000000
  56        -0.00000000
  57        -0.00000000
  58        -0.00000000
  59         0.00000000
  60        -0.00000000
Sym=    18a  
Ene=     4.4697
Spin= Alpha
Occup=    0.00000
   1         0.00000000
   2         0.00000000
   3        -0.00000000
   4        -0.00000000
   5        -0.00611072
   6        -0.00470776
   7        -0.00000000
   8         0.10406023
   9         0.08016895
  10         0.00000000
  11        -0.02769117
  12        -0.02133353
  13         0.00000000
  14        -0.00000000
  15         0.06098005
  16         0.04697958
  17         0.00000000
  18        -0.00000000
  19         0.00000000
  20        -0.51796024
  21        -0.39904128
  22        -0.00000000
  23         0.00000000
  24        -0.00000000
  25         0.00131961
  26         0.00101664
  27         0.00000000
  28         0.00000000
  29        -0.00000000
  30        -0.00000000
  31        -0.00000000
  32        -0.00000000
  33         0.00000000
  34         0.00000000
  35        -0.00611072
  36        -0.00470776
  37         0.00000000
  38         0.10406023
  39         0.08016895
  40        -0.00000000
  41        -0.02769117
  42        -0.02133353
  43         0.00000000
  44        -0.00000000
  45        -0.06098005
  46        -0.04697958
  47        -0.00000000
  48        -0.00000000
  49        -0.00000000
  50         0.51796024
  51         0.39904128
  52         0.00000000
  53         0.00000000
  54         0.00000000
  55         0.00131961
  56         0.00101664
  57         0.00000000
  58         0.00000000
  59        -0.00000000
  60         0.00000000
Sym=    19a  
Ene=     4.4697
Spin= Alpha
Occup=    0.00000
   1         0.00000000
   2         0.00000000
   3        -0.00000000
   4        -0.00000000
   5         0.00470776
   6        -0.00611072
   7         0.00000000
   8        -0.08016895