[Molden Format]
[N_Atoms]
                    2
[Atoms] (AU)
N1          1      7           0.00000000      0.00000000      0.00000000
N2          2      7           0.00000000      0.00000000      3.40150702
[5D]
[7F]
[Charge] (Mulliken)
   1.4262700996248157E-005
  -1.4262701068190609E-005
[GTO] (AU)
   1
   s  10
  1.142000000E+04  5.229996559E-04
  1.712000000E+03  4.044997339E-03
  3.893000000E+02  2.077498633E-02
  1.100000000E+02  8.072694689E-02
  3.557000000E+01  2.330738467E-01
  1.254000000E+01  4.335007148E-01
  4.644000000E+00  3.474717714E-01
  1.293000000E+00  4.126197285E-02
  5.118000000E-01 -8.507994403E-03
  1.787000000E-01  2.383998432E-03
   s  10
  1.142000000E+04 -1.149999544E-04
  1.712000000E+03 -8.949996452E-04
  3.893000000E+02 -4.623998167E-03
  1.100000000E+02 -1.852799265E-02
  3.557000000E+01 -5.733897727E-02
  1.254000000E+01 -1.320759476E-01
  4.644000000E+00 -1.725099316E-01
  1.293000000E+00  1.518139398E-01
  5.118000000E-01  5.999437621E-01
  1.787000000E-01  3.874618464E-01
   s   1
  1.293000000E+00  1.000000000E+00
   s   1
  1.787000000E-01  1.000000000E+00
   p   5
  2.663000000E+01  1.467000345E-02
  5.948000000E+00  9.176402155E-02
  1.742000000E+00  2.986830701E-01
  5.550000000E-01  4.984871171E-01
  1.725000000E-01  3.370230791E-01
   p   1
  5.550000000E-01  1.000000000E+00
   p   1
  1.725000000E-01  1.000000000E+00
   d   1
  1.654000000E+00  1.000000000E+00
   d   1
  4.690000000E-01  1.000000000E+00
   f   1
  1.093000000E+00  1.000000000E+00
 
   2
   s  10
  1.142000000E+04  5.229996559E-04
  1.712000000E+03  4.044997339E-03
  3.893000000E+02  2.077498633E-02
  1.100000000E+02  8.072694689E-02
  3.557000000E+01  2.330738467E-01
  1.254000000E+01  4.335007148E-01
  4.644000000E+00  3.474717714E-01
  1.293000000E+00  4.126197285E-02
  5.118000000E-01 -8.507994403E-03
  1.787000000E-01  2.383998432E-03
   s  10
  1.142000000E+04 -1.149999544E-04
  1.712000000E+03 -8.949996452E-04
  3.893000000E+02 -4.623998167E-03
  1.100000000E+02 -1.852799265E-02
  3.557000000E+01 -5.733897727E-02
  1.254000000E+01 -1.320759476E-01
  4.644000000E+00 -1.725099316E-01
  1.293000000E+00  1.518139398E-01
  5.118000000E-01  5.999437621E-01
  1.787000000E-01  3.874618464E-01
   s   1
  1.293000000E+00  1.000000000E+00
   s   1
  1.787000000E-01  1.000000000E+00
   p   5
  2.663000000E+01  1.467000345E-02
  5.948000000E+00  9.176402155E-02
  1.742000000E+00  2.986830701E-01
  5.550000000E-01  4.984871171E-01
  1.725000000E-01  3.370230791E-01
   p   1
  5.550000000E-01  1.000000000E+00
   p   1
  1.725000000E-01  1.000000000E+00
   d   1
  1.654000000E+00  1.000000000E+00
   d   1
  4.690000000E-01  1.000000000E+00
   f   1
  1.093000000E+00  1.000000000E+00
 
[MO]
Sym=     1a  
Ene=     0.0000
Spin= Alpha
Occup=    0.00000
   1         0.70259246
   2         0.00039688
   3        -0.00119685
   4        -0.00025704
   5         0.00000000
   6         0.00000000
   7         0.00258099
   8        -0.00000000
   9        -0.00000000
  10        -0.00173864
  11        -0.00000000
  12         0.00000000
  13        -0.00053590
  14        -0.00001334
  15         0.00000000
  16        -0.00000000
  17        -0.00000000
  18        -0.00000000
  19         0.00025156
  20         0.00000000
  21         0.00000000
  22         0.00000000
  23         0.00000000
  24         0.00009731
  25        -0.00000000
  26        -0.00000000
  27        -0.00000000
  28         0.00000000
  29        -0.00000000
  30        -0.00000000
  31         0.71289254
  32         0.00041061
  33        -0.00121695
  34        -0.00027053
  35         0.00000000
  36        -0.00000000
  37        -0.00262357
  38        -0.00000000
  39         0.00000000
  40         0.00177469
  41         0.00000000
  42         0.00000000
  43         0.00054923
  44        -0.00001225
  45        -0.00000000
  46         0.00000000
  47        -0.00000000
  48         0.00000000
  49         0.00024470
  50         0.00000000
  51        -0.00000000
  52        -0.00000000
  53        -0.00000000
  54        -0.00009458
  55        -0.00000000
  56         0.00000000
  57        -0.00000000
  58         0.00000000
  59         0.00000000
  60        -0.00000000
Sym=     2a  
Ene=     0.0000
Spin= Alpha
Occup=    0.00000
   1        -0.71262479
   2         0.00042862
   3         0.00077928
   4        -0.00054710
   5        -0.00000000
   6        -0.00000000
   7        -0.00291806
   8         0.00000000
   9         0.00000000
  10         0.00247569
  11         0.00000000
  12         0.00000000
  13         0.00047405
  14        -0.00007125
  15         0.00000000
  16         0.00000000
  17         0.00000000
  18         0.00000000
  19         0.00033724
  20         0.00000000
  21        -0.00000000
  22        -0.00000000
  23        -0.00000000
  24         0.00017567
  25        -0.00000000
  26        -0.00000000
  27         0.00000000
  28         0.00000000
  29         0.00000000
  30         0.00000000
  31         0.70233433
  32        -0.00041982
  33        -0.00076934
  34         0.00054124
  35         0.00000000
  36        -0.00000000
  37        -0.00288033
  38        -0.00000000
  39         0.00000000
  40         0.00244982
  41        -0.00000000
  42         0.00000000
  43         0.00046655
  44         0.00007129
  45        -0.00000000
  46        -0.00000000
  47        -0.00000000
  48         0.00000000
  49        -0.00034127
  50         0.00000000
  51        -0.00000000
  52        -0.00000000
  53        -0.00000000
  54         0.00017725
  55        -0.00000000
  56         0.00000000
  57        -0.00000000
  58        -0.00000000
  59        -0.00000000
  60        -0.00000000
Sym=     3a  
Ene=     0.0000
Spin= Alpha
Occup=    0.00000
   1        -0.00080335
   2         0.68169512
   3         0.00352934
   4        -0.04821463
   5         0.00000000
   6        -0.00000000
   7         0.07441269
   8        -0.00000000
   9         0.00000000
  10         0.00838760
  11         0.00000000
  12         0.00000000
  13        -0.00752601
  14         0.00315305
  15         0.00000000
  16         0.00000000
  17         0.00000000
  18        -0.00000000
  19         0.01198216
  20         0.00000000
  21         0.00000000
  22         0.00000000
  23        -0.00000000
  24         0.00221323
  25         0.00000000
  26        -0.00000000
  27        -0.00000000
  28         0.00000000
  29         0.00000000
  30        -0.00000000
  31        -0.00079607
  32         0.68170263
  33         0.00351989
  34        -0.04823507
  35        -0.00000000
  36        -0.00000000
  37        -0.07440846
  38        -0.00000000
  39         0.00000000
  40        -0.00838948
  41        -0.00000000
  42         0.00000000
  43         0.00753178
  44         0.00315261
  45         0.00000000
  46         0.00000000
  47        -0.00000000
  48        -0.00000000
  49         0.01198124
  50         0.00000000
  51        -0.00000000
  52        -0.00000000
  53        -0.00000000
  54        -0.00221337
  55        -0.00000000
  56        -0.00000000
  57        -0.00000000
  58        -0.00000000
  59        -0.00000000
  60        -0.00000000
Sym=     4a  
Ene=     0.0000
Spin= Alpha
Occup=    0.00000
   1        -0.00354292
   2        -0.74470197
   3        -0.00984430
   4         0.02580449
   5        -0.00000000
   6         0.00000000
   7         0.13575088
   8        -0.00000000
   9        -0.00000000
  10        -0.00199733
  11        -0.00000000
  12        -0.00000000
  13        -0.01363061
  14         0.00212603
  15         0.00000000
  16        -0.00000000
  17        -0.00000000
  18         0.00000000
  19         0.00404186
  20        -0.00000000
  21         0.00000000
  22        -0.00000000
  23         0.00000000
  24         0.00046462
  25        -0.00000000
  26         0.00000000
  27        -0.00000000
  28        -0.00000000
  29        -0.00000000
  30        -0.00000000
  31         0.00355013
  32         0.74472874
  33         0.00983441
  34        -0.02581768
  35        -0.00000000
  36        -0.00000000
  37         0.13574016
  38        -0.00000000
  39         0.00000000
  40        -0.00199709
  41        -0.00000000
  42         0.00000000
  43        -0.01362707
  44        -0.00212635
  45         0.00000000
  46        -0.00000000
  47         0.00000000
  48        -0.00000000
  49        -0.00404242
  50         0.00000000
  51         0.00000000
  52        -0.00000000
  53        -0.00000000
  54         0.00046482
  55         0.00000000
  56        -0.00000000
  57         0.00000000
  58        -0.00000000
  59         0.00000000
  60        -0.00000000
Sym=     5a  
Ene=     0.0000
Spin= Alpha
Occup=    0.00000
   1         0.00063606
   2         0.15867603
   3         0.00982116
   4         0.04722900
   5        -0.00000000
   6        -0.00000000
   7        -0.63960650
   8        -0.00000000
   9         0.00000000
  10        -0.00275243
  11        -0.00000000
  12        -0.00000000
  13         0.00042485
  14        -0.00660429
  15        -0.00000000
  16        -0.00000000
  17         0.00000000
  18        -0.00000000
  19        -0.02379701
  20        -0.00000000
  21         0.00000000
  22        -0.00000000
  23        -0.00000000
  24        -0.00226107
  25        -0.00000000
  26        -0.00000000
  27         0.00000000
  28        -0.00000000
  29         0.00000000
  30        -0.00000000
  31         0.00064377
  32         0.15871910
  33         0.00981802
  34         0.04717195
  35         0.00000000
  36        -0.00000000
  37         0.63955187
  38        -0.00000000
  39        -0.00000000
  40         0.00275822
  41        -0.00000000
  42         0.00000000
  43        -0.00037290
  44        -0.00660226
  45         0.00000000
  46        -0.00000000
  47         0.00000000
  48        -0.00000000
  49        -0.02381150
  50        -0.00000000
  51         0.00000000
  52         0.00000000
  53         0.00000000
  54         0.00226299
  55         0.00000000
  56         0.00000000
  57         0.00000000
  58         0.00000000
  59         0.00000000
  60        -0.00000000
Sym=     6a  
Ene=     0.0000
Spin= Alpha
Occup=    0.00000
   1         0.00000000
   2        -0.00000000
   3        -0.00000000
   4        -0.00000000
   5         0.57933726
   6        -0.21122419
   7         0.00000000
   8        -0.00953463
   9         0.00347629
  10         0.00000000
  11         0.06234520
  12        -0.02273082
  13        -0.00000000
  14         0.00000000
  15         0.00366204
  16        -0.00133517
  17        -0.00000000
  18         0.00000000
  19        -0.00000000
  20         0.02422384
  21        -0.00883192
  22         0.00000000
  23         0.00000000
  24        -0.00000000
  25         0.00298135
  26        -0.00108699
  27        -0.00000000
  28         0.00000000
  29        -0.00000000
  30        -0.00000000
  31        -0.00000000
  32         0.00000000
  33         0.00000000
  34         0.00000000
  35         0.57936184
  36        -0.21123315
  37         0.00000000
  38        -0.00953999
  39         0.00347824
  40         0.00000000
  41         0.06234454
  42        -0.02273059
  43        -0.00000000
  44        -0.00000000
  45        -0.00366270
  46         0.00133541
  47        -0.00000000
  48        -0.00000000
  49         0.00000000
  50        -0.02422184
  51         0.00883119
  52        -0.00000000
  53         0.00000000
  54        -0.00000000
  55         0.00298187
  56        -0.00108718
  57         0.00000000
  58        -0.00000000
  59         0.00000001
  60         0.00000000
Sym=     7a  
Ene=     0.0000
Spin= Alpha
Occup=    0.00000
   1        -0.00000000
   2         0.00000000
   3        -0.00000000
   4         0.00000000
   5        -0.21122419
   6        -0.57933726
   7         0.00000000
   8         0.00347629
   9         0.00953463
  10         0.00000000
  11        -0.02273082
  12        -0.06234520
  13         0.00000000
  14        -0.00000000
  15        -0.00133517
  16        -0.00366204
  17         0.00000000
  18        -0.00000000
  19         0.00000000
  20        -0.00883192
  21        -0.02422384
  22         0.00000000
  23         0.00000000
  24         0.00000000
  25        -0.00108699
  26        -0.00298135
  27        -0.00000000
  28        -0.00000000
  29         0.00000000
  30        -0.00000000
  31         0.00000000
  32        -0.00000000
  33        -0.00000000
  34        -0.00000000
  35        -0.21123315
  36        -0.57936184
  37        -0.00000000
  38         0.00347824
  39         0.00953999
  40        -0.00000000
  41        -0.02273059
  42        -0.06234454
  43         0.00000000
  44         0.00000000
  45         0.00133541
  46         0.00366270
  47         0.00000000
  48        -0.00000000
  49        -0.00000000
  50         0.00883119
  51         0.02422184
  52         0.00000000
  53         0.00000000
  54         0.00000000
  55        -0.00108718
  56        -0.00298187
  57         0.00000000
  58        -0.00000000
  59        -0.00000000
  60         0.00000001
Sym=     8a  
Ene=     0.0000
Spin= Alpha
Occup=    0.00000
   1        -0.00000000
   2         0.00000000
   3         0.00000000
   4         0.00000000
   5        -0.24372230
   6         0.63550217
   7         0.00000000
   8         0.00885212
   9        -0.02308177
  10         0.00000000
  11        -0.05109930
  12         0.13324064
  13         0.00000000
  14        -0.00000000
  15         0.00069672
  16        -0.00181668
  17         0.00000000
  18        -0.00000000
  19         0.00000000
  20         0.00389891
  21        -0.01016634
  22        -0.00000000
  23         0.00000000
  24        -0.00000000
  25         0.00065585
  26        -0.00171011
  27        -0.00000000
  28         0.00000000
  29         0.00000000
  30         0.00000001
  31         0.00000000
  32        -0.00000000
  33         0.00000000
  34        -0.00000000
  35         0.24371976
  36        -0.63549555
  37        -0.00000000
  38        -0.00885343
  39         0.02308517
  40        -0.00000000
  41         0.05109630
  42        -0.13323282
  43         0.00000000
  44         0.00000000
  45         0.00069662
  46        -0.00181641
  47         0.00000000
  48         0.00000000
  49         0.00000000
  50         0.00389935
  51        -0.01016749
  52        -0.00000000
  53         0.00000000
  54         0.00000000
  55        -0.00065567
  56         0.00170964
  57         0.00000000
  58        -0.00000000
  59        -0.00000000
  60        -0.00000000
Sym=     9a  
Ene=     0.0000
Spin= Alpha
Occup=    0.00000
   1        -0.00000000
   2        -0.00000000
   3         0.00000000
   4         0.00000000
   5        -0.63550217
   6        -0.24372230
   7         0.00000000
   8         0.02308177
   9         0.00885212
  10        -0.00000000
  11        -0.13324064
  12        -0.05109930
  13         0.00000000
  14         0.00000000
  15         0.00181668
  16         0.00069672
  17         0.00000000
  18        -0.00000000
  19         0.00000000
  20         0.01016634
  21         0.00389891
  22        -0.00000000
  23        -0.00000000
  24         0.00000000
  25         0.00171011
  26         0.00065585
  27         0.00000000
  28        -0.00000000
  29         0.00000001
  30        -0.00000000
  31         0.00000000
  32         0.00000000
  33         0.00000000
  34        -0.00000000
  35         0.63549555
  36         0.24371976
  37        -0.00000000
  38        -0.02308517
  39        -0.00885343
  40         0.00000000
  41         0.13323282
  42         0.05109630
  43         0.00000000
  44         0.00000000
  45         0.00181641
  46         0.00069662
  47        -0.00000000
  48        -0.00000000
  49        -0.00000000
  50         0.01016749
  51         0.00389935
  52        -0.00000000
  53        -0.00000000
  54         0.00000000
  55        -0.00170964
  56        -0.00065567
  57         0.00000000
  58        -0.00000000
  59        -0.00000000
  60         0.00000000
Sym=    10a  
Ene=     0.0000
Spin= Alpha
Occup=    0.00000
   1         0.00294883
   2         0.28835839
   3         0.00473271
   4         0.27839740
   5         0.00000000
   6         0.00000000
   7         0.71426669
   8         0.00000000
   9        -0.00000000
  10        -0.03977513
  11        -0.00000000
  12         0.00000000
  13         0.40210105
  14        -0.01031445
  15         0.00000000
  16         0.00000000
  17        -0.00000000
  18         0.00000000
  19        -0.00339670
  20         0.00000000
  21        -0.00000000
  22         0.00000000
  23         0.00000000
  24        -0.00081120
  25         0.00000000
  26         0.00000000
  27        -0.00000000
  28         0.00000000
  29         0.00000000
  30         0.00000000
  31        -0.00295506
  32        -0.28837833
  33        -0.00472653
  34        -0.27836254
  35         0.00000000
  36         0.00000000
  37         0.71426949
  38         0.00000000
  39        -0.00000000
  40        -0.03978909
  41        -0.00000000
  42         0.00000000
  43         0.40215101
  44         0.01031535
  45        -0.00000000
  46         0.00000000
  47        -0.00000000
  48         0.00000000
  49         0.00339388
  50        -0.00000000
  51         0.00000000
  52         0.00000000
  53        -0.00000000
  54        -0.00081078
  55        -0.00000000
  56        -0.00000000
  57         0.00000000
  58         0.00000000
  59         0.00000000
  60         0.00000000
Sym=    11a  
Ene=     0.0000
Spin= Alpha
Occup=    0.00000
   1         0.04372067
   2         0.32481736
   3        -0.02866635
   4         0.50054126
   5         0.00000000
   6         0.00000000
   7        -0.49391318
   8         0.00000000
   9         0.00000000
  10        -0.26828928
  11        -0.00000000
  12        -0.00000000
  13         1.64963538
  14        -0.02557385
  15        -0.00000000
  16         0.00000000
  17        -0.00000000
  18         0.00000000
  19         0.18353076
  20        -0.00000000
  21        -0.00000000
  22         0.00000000
  23        -0.00000000
  24         0.01595369
  25        -0.00000000
  26        -0.00000000
  27         0.00000000
  28        -0.00000000
  29         0.00000000
  30         0.00000000
  31        -0.04378695
  32        -0.32516006
  33         0.02868629
  34        -0.50010003
  35         0.00000000
  36         0.00000000
  37        -0.49404334
  38         0.00000000
  39        -0.00000000
  40        -0.26851313
  41        -0.00000000
  42        -0.00000000
  43         1.65007081
  44         0.02558020
  45         0.00000000
  46        -0.00000000
  47        -0.00000000
  48         0.00000000
  49        -0.18350558
  50         0.00000000
  51         0.00000000
  52         0.00000000
  53        -0.00000000
  54         0.01595350
  55         0.00000000
  56        -0.00000000
  57        -0.00000000
  58        -0.00000000
  59         0.00000000
  60        -0.00000000
Sym=    12a  
Ene=     0.0000
Spin= Alpha
Occup=    0.00000
   1         0.00000000
   2         0.00000000
   3        -0.00000000
   4        -0.00000000
   5        -0.49586659
   6         0.12686140
   7        -0.00000000
   8        -0.33424428
   9         0.08551231
  10        -0.00000000
  11         0.88164336
  12        -0.22555767
  13         0.00000000
  14         0.00000000
  15         0.00383332
  16        -0.00098071
  17         0.00000000
  18        -0.00000000
  19         0.00000000
  20        -0.03995873
  21         0.01022295
  22        -0.00000000
  23         0.00000000
  24         0.00000000
  25        -0.00616092
  26         0.00157620
  27         0.00000000
  28        -0.00000000
  29        -0.00000002
  30        -0.00000000
  31         0.00000000
  32         0.00000000
  33        -0.00000000
  34        -0.00000000
  35        -0.49586144
  36         0.12686008
  37        -0.00000000
  38        -0.33423625
  39         0.08551026
  40        -0.00000000
  41         0.88163194
  42        -0.22555474
  43         0.00000000
  44        -0.00000000
  45        -0.00383262
  46         0.00098053
  47         0.00000000
  48        -0.00000000
  49        -0.00000000
  50         0.03995426
  51        -0.01022181
  52         0.00000000
  53        -0.00000000
  54        -0.00000000
  55        -0.00616101
  56         0.00157622
  57        -0.00000000
  58         0.00000000
  59        -0.00000001
  60        -0.00000000
Sym=    13a  
Ene=     0.0000
Spin= Alpha
Occup=    0.00000
   1         0.00000000
   2         0.00000000
   3        -0.00000000
   4        -0.00000000
   5         0.12686140
   6         0.49586659
   7        -0.00000000
   8         0.08551231
   9         0.33424428
  10        -0.00000000
  11        -0.22555767
  12        -0.88164336
  13         0.00000000
  14        -0.00000000
  15        -0.00098071
  16        -0.00383332
  17        -0.00000000
  18        -0.00000000
  19        -0.00000000
  20         0.01022295
  21         0.03995873
  22         0.00000000
  23         0.00000000
  24         0.00000000
  25         0.00157620
  26         0.00616092
  27        -0.00000000
  28         0.00000000
  29         0.00000000
  30        -0.00000002
  31         0.00000000
  32         0.00000000
  33        -0.00000000
  34        -0.00000000
  35         0.12686008
  36         0.49586144
  37         0.00000000
  38         0.08551026
  39         0.33423625
  40         0.00000000
  41        -0.22555474
  42        -0.88163194
  43        -0.00000000
  44        -0.00000000
  45         0.00098053
  46         0.00383262
  47        -0.00000000
  48        -0.00000000
  49         0.00000000
  50        -0.01022181
  51        -0.03995426
  52        -0.00000000
  53         0.00000000
  54        -0.00000000
  55         0.00157622
  56         0.00616101
  57        -0.00000000
  58         0.00000000
  59         0.00000000
  60        -0.00000001
Sym=    14a  
Ene=     0.0000
Spin= Alpha
Occup=    0.00000
   1        -0.22237873
   2        -1.12587097
   3         0.05827916
   4         1.30664512
   5        -0.00000000
   6         0.00000000
   7         0.26872466
   8        -0.00000000
   9         0.00000000
  10         0.30532356
  11         0.00000000
  12        -0.00000000
  13        -0.76098326
  14         0.01007080
  15        -0.00000000
  16         0.00000000
  17         0.00000000
  18         0.00000000
  19         0.01035048
  20        -0.00000000
  21         0.00000000
  22        -0.00000000
  23        -0.00000000
  24        -0.00322356
  25         0.00000000
  26         0.00000000
  27        -0.00000000
  28        -0.00000000
  29        -0.00000000
  30         0.00000000
  31        -0.22234371
  32        -1.12561991
  33         0.05828367
  34         1.30666352
  35         0.00000000
  36         0.00000000
  37        -0.26851130
  38         0.00000000
  39         0.00000000
  40        -0.30521968
  41        -0.00000000
  42        -0.00000000
  43         0.76032426
  44         0.01006443
  45        -0.00000000
  46         0.00000000
  47        -0.00000000
  48         0.00000000
  49         0.01040045
  50        -0.00000000
  51        -0.00000000
  52         0.00000000
  53        -0.00000000
  54         0.00321890
  55        -0.00000000
  56         0.00000000
  57        -0.00000000
  58         0.00000000
  59         0.00000000
  60        -0.00000000
Sym=    15a  
Ene=     0.0000
Spin= Alpha
Occup=    0.00000
   1        -0.00000000
   2        -0.00000000
   3        -0.00000000
   4         0.00000000
   5         0.02925316
   6         0.47845790
   7        -0.00000000
   8         0.02242518
   9         0.36678098
  10         0.00000000
  11        -0.07562958
  12        -1.23697980
  13        -0.00000000
  14        -0.00000000
  15         0.00047140
  16         0.00771004
  17        -0.00000000
  18        -0.00000000
  19        -0.00000000
  20         0.00076551
  21         0.01252052
  22        -0.00000000
  23         0.00000000
  24         0.00000000
  25        -0.00036010
  26        -0.00588973
  27        -0.00000000
  28         0.00000000
  29        -0.00000000
  30         0.00000001
  31        -0.00000000
  32        -0.00000000
  33         0.00000000
  34         0.00000000
  35        -0.02925384
  36        -0.47846897
  37        -0.00000000
  38        -0.02242515
  39        -0.36678060
  40         0.00000000
  41         0.07563028
  42         1.23699123
  43        -0.00000000
  44        -0.00000000
  45         0.00047145
  46         0.00771099
  47         0.00000000
  48         0.00000000
  49        -0.00000000
  50         0.00076488
  51         0.01251013
  52        -0.00000000
  53        -0.00000000
  54         0.00000000
  55         0.00036008
  56         0.00588938
  57        -0.00000000
  58         0.00000000
  59        -0.00000000
  60         0.00000002
Sym=    16a  
Ene=     0.0000
Spin= Alpha
Occup=    0.00000
   1        -0.00000000
   2        -0.00000000
   3         0.00000000
   4         0.00000000
   5        -0.47845790
   6         0.02925316
   7        -0.00000000
   8        -0.36678098
   9         0.02242518
  10        -0.00000000
  11         1.23697980
  12        -0.07562958
  13         0.00000000
  14        -0.00000000
  15        -0.00771004
  16         0.00047140
  17         0.00000000
  18        -0.00000000
  19        -0.00000000
  20        -0.01252052
  21         0.00076551
  22        -0.00000000
  23        -0.00000000
  24         0.00000000
  25         0.00588973
  26        -0.00036010
  27        -0.00000000
  28        -0.00000000
  29         0.00000001
  30         0.00000000
  31        -0.00000000
  32        -0.00000000
  33         0.00000000
  34         0.00000000
  35         0.47846897
  36        -0.02925384
  37         0.00000000
  38         0.36678060
  39        -0.02242515
  40         0.00000000
  41        -1.23699123
  42         0.07563028
  43        -0.00000000
  44        -0.00000000
  45        -0.00771099
  46         0.00047145
  47        -0.00000000
  48         0.00000000
  49        -0.00000000
  50        -0.01251013
  51         0.00076488
  52         0.00000000
  53        -0.00000000
  54         0.00000000
  55        -0.00588938
  56         0.00036008
  57        -0.00000000
  58        -0.00000000
  59         0.00000002
  60         0.00000000
Sym=    17a  
Ene=     0.0000
Spin= Alpha
Occup=    0.00000
   1         0.26147514
   2         1.23218367
   3        -0.07973183
   4        -1.09496042
   5        -0.00000000
   6         0.00000000
   7         0.20661222
   8        -0.00000000
   9         0.00000000
  10         0.30481350
  11         0.00000000
  12        -0.00000000
  13        -0.62303599
  14         0.00212944
  15        -0.00000000
  16        -0.00000000
  17        -0.00000000
  18        -0.00000000
  19         0.20576212
  20        -0.00000000
  21         0.00000000
  22         0.00000000
  23         0.00000000
  24         0.00702448
  25         0.00000000
  26        -0.00000000
  27        -0.00000000
  28         0.00000000
  29        -0.00000000
  30        -0.00000000
  31         0.26159066
  32         1.23264531
  33        -0.07978977
  34        -1.09556972
  35         0.00000000
  36        -0.00000000
  37        -0.20654762
  38         0.00000000
  39        -0.00000000
  40        -0.30481073
  41        -0.00000000
  42         0.00000000
  43         0.62308924
  44         0.00213255
  45         0.00000000
  46        -0.00000000
  47         0.00000000
  48        -0.00000000
  49         0.20574575
  50        -0.00000000
  51         0.00000000
  52        -0.00000000
  53         0.00000000
  54        -0.00701976
  55        -0.00000000
  56         0.00000000
  57        -0.00000000
  58        -0.00000000
  59         0.00000000
  60         0.00000000
Sym=    18a  
Ene=     0.0000
Spin= Alpha
Occup=    0.00000
   1        -0.41257237
   2        -1.86389982
   3         0.05569947
   4         3.18835682
   5         0.00000000
   6         0.00000000
   7        -0.13372197
   8        -0.00000000
   9        -0.00000000
  10        -0.10358829
  11         0.00000000
  12        -0.00000000
  13         1.38726667
  14        -0.01593720
  15         0.00000000
  16        -0.00000000
  17         0.00000000
  18         0.00000000
  19        -0.07903992
  20        -0.00000000
  21         0.00000000
  22        -0.00000000
  23        -0.00000000
  24         0.01824297
  25        -0.00000000
  26        -0.00000000
  27        -0.00000000
  28        -0.00000000
  29         0.00000000
  30        -0.00000000
  31         0.41258796
  32         1.86388360
  33        -0.05574647
  34        -3.18832690
  35         0.00000000
  36         0.00000000
  37        -0.13365129
  38        -0.00000000
  39        -0.00000000
  40        -0.10358342
  41        -0.00000000
  42         0.00000000
  43         1.38715352
  44         0.01593656
  45        -0.00000000
  46         0.00000000
  47         0.00000000
  48         0.00000000
  49         0.07897260
  50         0.00000000
  51        -0.00000000
  52        -0.00000000
  53        -0.00000000
  54         0.01824433
  55        -0.00000000
  56        -0.00000000
  57         0.00000000
  58         0.00000000
  59         0.00000000
  60        -0.00000000
Sym=    19a  
Ene=     0.0000
Spin= Alpha
Occup=    0.00000
   1         0.00000000
   2         0.00000000
   3        -0.00000000
   4        -0.00000000
   5         0.05721940
   6         0.12105920
   7         0.00000000
   8        -0.02034903