Generated by MOKIT
SP        RHF                                                         MYBAS
Number of atoms                            I                2
Charge                                     I                0
Multiplicity                               I                1
Number of electrons                        I               14
Number of alpha electrons                  I                7
Number of beta electrons                   I                7
Number of basis functions                  I               60
Number of independent functions            I               60
Atomic numbers                             I   N=           2
           7           7
Nuclear charges                            R   N=           2
  7.00000000E+00  7.00000000E+00
Current cartesian coordinates              R   N=           6
  0.00000000E+00  0.00000000E+00  0.00000000E+00  0.00000000E+00  0.00000000E+00
  1.13383567E+01
Int Atom Types                             I   N=           2
           0           0
Number of contracted shells                I               20
Number of primitive shells                 I               52
Highest angular momentum                   I                3
Largest degree of contraction              I                8
Shell types                                I   N=          20
           0           0           0           0           1           1
           1          -2          -2          -3           0           0
           0           0           1           1           1          -2
          -2          -3
Number of primitives per shell             I   N=          20
           8           8           1           1           3           1
           1           1           1           1           8           8
           1           1           3           1           1           1
           1           1
Shell to atom map                          I   N=          20
           1           1           1           1           1           1
           1           1           1           1           2           2
           2           2           2           2           2           2
           2           2
Primitive exponents                        R   N=          52
  1.14200000E+04  1.71200000E+03  3.89300000E+02  1.10000000E+02  3.55700000E+01
  1.25400000E+01  4.64400000E+00  5.11800000E-01  1.14200000E+04  1.71200000E+03
  3.89300000E+02  1.10000000E+02  3.55700000E+01  1.25400000E+01  4.64400000E+00
  5.11800000E-01  1.29300000E+00  1.78700000E-01  2.66300000E+01  5.94800000E+00
  1.74200000E+00  5.55000000E-01  1.72500000E-01  1.65400000E+00  4.69000000E-01
  1.09300000E+00  1.14200000E+04  1.71200000E+03  3.89300000E+02  1.10000000E+02
  3.55700000E+01  1.25400000E+01  4.64400000E+00  5.11800000E-01  1.14200000E+04
  1.71200000E+03  3.89300000E+02  1.10000000E+02  3.55700000E+01  1.25400000E+01
  4.64400000E+00  5.11800000E-01  1.29300000E+00  1.78700000E-01  2.66300000E+01
  5.94800000E+00  1.74200000E+00  5.55000000E-01  1.72500000E-01  1.65400000E+00
  4.69000000E-01  1.09300000E+00
Contraction coefficients                   R   N=          52
  5.34980914E-04  4.13766310E-03  2.12509149E-02  8.25762988E-02  2.38413273E-01
  4.43431666E-01  3.55431909E-01 -8.70290176E-03 -1.98776985E-04 -1.54700349E-03
 -7.99256330E-03 -3.20255651E-02 -9.91102048E-02 -2.28292775E-01 -2.98182763E-01
  1.03700052E+00  1.00000000E+00  1.00000000E+00  3.98072123E-02  2.49002660E-01
  8.10479727E-01  1.00000000E+00  1.00000000E+00  1.00000000E+00  1.00000000E+00
  1.00000000E+00  5.34980914E-04  4.13766310E-03  2.12509149E-02  8.25762988E-02
  2.38413273E-01  4.43431666E-01  3.55431909E-01 -8.70290176E-03 -1.98776985E-04
 -1.54700349E-03 -7.99256330E-03 -3.20255651E-02 -9.91102048E-02 -2.28292775E-01
 -2.98182763E-01  1.03700052E+00  1.00000000E+00  1.00000000E+00  3.98072123E-02
  2.49002660E-01  8.10479727E-01  1.00000000E+00  1.00000000E+00  1.00000000E+00
  1.00000000E+00  1.00000000E+00
Coordinates of each shell                  R   N=          60
  0.00000000E+00  0.00000000E+00  0.00000000E+00  0.00000000E+00  0.00000000E+00
  0.00000000E+00  0.00000000E+00  0.00000000E+00  0.00000000E+00  0.00000000E+00
  0.00000000E+00  0.00000000E+00  0.00000000E+00  0.00000000E+00  0.00000000E+00
  0.00000000E+00  0.00000000E+00  0.00000000E+00  0.00000000E+00  0.00000000E+00
  0.00000000E+00  0.00000000E+00  0.00000000E+00  0.00000000E+00  0.00000000E+00
  0.00000000E+00  0.00000000E+00  0.00000000E+00  0.00000000E+00  0.00000000E+00
  0.00000000E+00  0.00000000E+00  1.13383567E+01  0.00000000E+00  0.00000000E+00
  1.13383567E+01  0.00000000E+00  0.00000000E+00  1.13383567E+01  0.00000000E+00
  0.00000000E+00  1.13383567E+01  0.00000000E+00  0.00000000E+00  1.13383567E+01
  0.00000000E+00  0.00000000E+00  1.13383567E+01  0.00000000E+00  0.00000000E+00
  1.13383567E+01  0.00000000E+00  0.00000000E+00  1.13383567E+01  0.00000000E+00
  0.00000000E+00  1.13383567E+01  0.00000000E+00  0.00000000E+00  1.13383567E+01
Num ILSW                                   I              100
ILSW                                       I   N=         100
           0           0           0           0           2           0
           0           0           0           0           0          -1
           5           0           0           0           0           0
           0           0           0           0           0           0
           1           1           0           0           0           0
           0           0      100000           0          -1           0
           0           0           0           0           0           0
           0           0           0           1           0           0
           0 -2000000000           1           0           0           0
           0           0           4          52           0           0
           0           0           0           0           0           0
           0           0           0           2           0           1
           0           0           0           0           0           0
           0           0           0           0           0           0
           0           0           0           0           0           0
           0           0           0           0           0           0
           0           0           0           0
Virial Ratio                               R      0.000000000000000E+00
Total Energy                               R      0.000000000000000E+00
Alpha Orbital Energies                     R   N=          60
 -1.58000149E+01 -1.58000035E+01 -1.02333714E+00 -1.02158116E+00 -2.93261999E-01
 -2.91992909E-01 -2.91992909E-01 -2.04557189E-01 -2.04557189E-01 -2.02920196E-01
  6.19122594E-01  6.19868568E-01  6.19868568E-01  6.20014136E-01  6.20014136E-01
  6.21001918E-01  6.70293926E-01  6.71488553E-01  1.22147496E+00  1.22155423E+00
  1.22155423E+00  1.22173698E+00  1.22173698E+00  1.22237716E+00  1.22237716E+00
  1.22256873E+00  1.22256873E+00  1.22265261E+00  3.15349142E+00  3.15394413E+00
  3.15394413E+00  3.15399570E+00  3.15399570E+00  3.15453213E+00  4.17014336E+00
  4.17014719E+00  4.17014719E+00  4.17015779E+00  4.17015786E+00  4.17016804E+00
  4.17016857E+00  4.17016857E+00  4.17017135E+00  4.17017138E+00  4.17017372E+00
  4.17017372E+00  4.17017807E+00  4.17017807E+00  4.74820541E+00  4.74820593E+00
  4.74820594E+00  4.74820709E+00  4.74820807E+00  4.74820810E+00  4.74820811E+00
  4.74820842E+00  4.74820927E+00  4.74820936E+00  5.60729872E+00  5.60752089E+00
Alpha MO coefficients                      R   N=        3600
  1.32193270E-05  2.46493187E-05  1.07765749E-06 -6.11447392E-05  8.58990967E-11
  9.27441920E-11 -1.34696396E-04  1.09924814E-10  1.18704536E-10 -1.66045312E-04
  1.16109016E-10  1.25827101E-10 -1.93802726E-04  2.21084176E-07  1.93309138E-15
 -1.53696605E-15 -3.68673909E-12 -2.59728766E-12 -8.94160557E-06  6.66106899E-13
  7.46368622E-13  4.50374944E-12  3.17286704E-12 -2.54900321E-07  1.91119521E-13
  2.44333867E-13  3.60727961E-11  2.54130885E-11 -7.25064547E-18 -5.43654143E-17
  9.75389460E-01 -4.50474210E-02  2.72202026E-02 -2.46850605E-02  9.87438816E-11
  1.09376699E-10 -8.64014351E-05  1.24706978E-10  1.37848686E-10 -1.74875095E-05
  1.30308176E-10  1.44215811E-10 -1.18724224E-05 -3.06921849E-07  1.86656270E-11
  2.41390399E-11 -4.86342418E-09 -3.42625590E-09 -7.46391798E-07 -1.36704451E-12
 -1.65259009E-12  1.83691267E-10  1.29409499E-10  2.61591335E-08  4.77362383E-14
  5.89806875E-14 -6.24133331E-12 -4.39698569E-12  7.60150079E-18  6.24057939E-17
  9.75389470E-01 -4.50473434E-02  2.72202250E-02 -2.46850149E-02 -4.07624472E-11
 -7.44983478E-11  8.64019894E-05 -5.05718505E-11 -9.32532940E-11  1.74881455E-05
 -5.34029856E-11 -9.79554159E-11  1.18732044E-05 -3.07695723E-07  1.86784253E-11
  2.41467152E-11  4.86342525E-09  3.42625666E-09 -7.46355647E-07 -1.00291250E-12
 -1.43366534E-12 -1.83680691E-10 -1.29402049E-10 -2.61574645E-08 -3.90034081E-14
 -5.37113035E-14 -6.24148298E-12 -4.39709063E-12 -4.17536162E-18  3.57920677E-17
  1.32192984E-05  2.46492635E-05  1.07765502E-06 -6.11446105E-05 -2.78935905E-11
 -5.78728704E-11  1.34696175E-04 -3.57590071E-11 -7.41181641E-11  1.66045038E-04
 -3.91747484E-11 -7.95752662E-11  1.93802293E-04  2.21082907E-07 -1.08423131E-14
 -9.21650285E-15  3.68673080E-12  2.59728181E-12 -8.94158128E-06  3.02117442E-13
  5.27464355E-13 -4.50346661E-12 -3.17266774E-12  2.54891877E-07 -1.82336598E-13
 -2.39068508E-13  3.60727180E-11  2.54130339E-11  4.50595484E-18 -2.77385904E-17
 -4.94569281E-04 -3.44007977E-03 -9.30939935E-04 -1.67357611E-03  1.53947235E-08
  1.23505940E-08 -2.36564304E-02  1.96720937E-08  1.57764626E-08 -3.02760256E-02
  2.09340511E-08  1.70476332E-08 -3.13299260E-02 -9.06189129E-06  3.20779746E-12
  2.48369484E-12 -1.06947555E-11 -7.53439145E-12 -6.26037729E-05  1.42320512E-10
  1.36625306E-10 -5.05272918E-10 -3.55962024E-10 -5.10553182E-07  3.67199342E-11
  4.63358220E-11  6.83677205E-09  4.81646872E-09 -2.35628051E-15 -8.22006337E-15
  7.58605959E-02  5.92542491E-01  1.68857791E-01  3.53100323E-01  2.43684757E-08
  2.39582214E-08  2.60045343E-02  3.11699549E-08  3.06490459E-08  3.31223639E-02
  3.17738931E-08  3.10690675E-08  3.40118013E-02 -1.09468449E-05  1.58928671E-11
  2.22127834E-11 -5.59254537E-09 -3.93991781E-09 -1.88272159E-04  1.95703643E-10
  3.00465610E-10 -7.78395674E-08 -5.48375521E-08  4.12254291E-06 -3.37717872E-11
 -4.48029605E-11  7.44843542E-09  5.24738220E-09  2.62994838E-15  1.43867183E-14
  7.58604891E-02  5.92542661E-01  1.68857834E-01  3.53100452E-01 -9.77911528E-09
 -2.08299590E-08 -2.60036367E-02 -1.25159974E-08 -2.66492449E-08 -3.31212167E-02
 -1.24229415E-08 -2.69200256E-08 -3.40106342E-02 -1.09475137E-05  1.91061021E-11
  2.29016631E-11  5.59255194E-09  3.93992245E-09 -1.88280579E-04  2.87301365E-10
  3.20092083E-10  7.78395858E-08  5.48375651E-08 -4.12403559E-06  3.59679807E-11
  4.52744071E-11  7.44817867E-09  5.24720144E-09 -1.72433169E-15  9.67260606E-15
 -4.94565007E-04 -3.44002517E-03 -9.30922880E-04 -1.67352075E-03 -8.00929026E-10
 -9.22397191E-09  2.36559742E-02 -1.01245622E-09 -1.17787630E-08  3.02754448E-02
 -1.57773965E-09 -1.29005732E-08  3.13292900E-02 -9.06182400E-06 -6.40632435E-15
  1.79517917E-12  1.06932270E-11  7.53332022E-12 -6.25974093E-05  5.07426996E-11
  1.16991616E-10  5.05261081E-10  3.55953685E-10  5.08930324E-07 -3.45123198E-11
 -4.58628869E-11  6.83664021E-09  4.81637589E-09  2.00015370E-15 -3.50613934E-15
  4.80688571E-03  4.09711877E-02  1.19677247E-02  2.92997364E-02  1.16076705E-05
  1.68616005E-01  1.66597013E-01  1.48542959E-05  2.15592502E-01  2.12640982E-01
  1.47317544E-05  2.23644747E-01  2.22104900E-01  3.48740787E-05  2.97017959E-09
  3.71341996E-05  6.14986299E-10  4.31412594E-10  1.29438361E-03  1.23902568E-08
  1.05844009E-03  5.57291474E-09  3.92291831E-09  3.27362596E-05  1.07719033E-08
  2.54592223E-05 -4.75810491E-08 -3.38756431E-08  4.17597354E-08 -5.92847405E-08
  4.80704671E-03  4.09723582E-02  1.19680564E-02  2.93004129E-02  3.22069958E-07
  1.68631201E-01 -1.66598400E-01  3.99077201E-07  2.15611967E-01 -2.12642761E-01
  1.09125224E-06  2.23663114E-01 -2.22106566E-01  3.48746494E-05  3.42860828E-10
 -3.71386071E-05 -6.14996749E-10 -4.31419890E-10  1.29437658E-03 -6.24895674E-08
 -1.05837240E-03 -5.57307092E-09 -3.92302859E-09 -3.27254740E-05 -8.96965128E-09
  2.54801783E-05 -4.75814064E-08 -3.38759190E-08 -4.17673006E-08  5.92872345E-08
  1.03464105E-07  8.79075700E-07  2.56609755E-07  6.26328796E-07  2.38481548E-01
 -4.05697890E-06  3.56052086E-06  3.04922669E-01 -5.16935931E-06  4.54484028E-06
  3.16308641E-01 -6.31511092E-06  4.74133436E-06  7.53660965E-10  5.25222857E-05
 -3.13341808E-10 -1.35020636E-12 -1.75343111E-12  2.70941055E-08  1.49676061E-03
 -1.10557037E-07 -2.22674109E-12 -2.94886434E-12  8.87904777E-10  3.60457858E-05
  1.24810623E-08 -2.63809541E-10 -3.40496778E-10 -8.38460501E-08 -5.90668617E-08
  9.46238075E-08  8.14602165E-07  2.38359148E-07  5.89140526E-07  2.38458081E-01
 -1.99330938E-05 -3.47579564E-06  3.04892612E-01 -2.55043613E-05 -4.43616956E-06
  3.16280277E-01 -2.55041313E-05 -4.63933060E-06  7.19859247E-10 -5.25153373E-05
  4.97005030E-09  1.35065775E-12  1.75356190E-12  2.75662597E-08 -1.49686469E-03
  4.00224184E-08  2.23469347E-12  2.95478076E-12 -4.94221321E-10  3.59934152E-05
 -1.61041907E-08 -2.63782763E-10 -3.40430112E-10  8.38418283E-08  5.90557166E-08
 -4.80687712E-03 -4.09711232E-02 -1.19677063E-02 -2.92996980E-02  1.65820036E-05
  1.68615968E-01 -1.66596895E-01  2.12143467E-05  2.15592455E-01 -2.12640831E-01
  2.13365461E-05  2.23644707E-01 -2.22104753E-01 -3.48740393E-05  4.05855100E-09
  3.71341822E-05 -6.12493282E-10 -4.33340041E-10 -1.29438373E-03  4.42093819E-08
  1.05844064E-03 -5.56861724E-09 -3.92623043E-09 -3.27358919E-05  1.20043324E-08
  2.54598384E-05  4.80614643E-08  3.35039846E-08  4.17579774E-08 -5.92859606E-08
 -4.80705460E-03 -4.09724139E-02 -1.19680721E-02 -2.93004438E-02  5.41526383E-06
  1.68631318E-01  1.66598437E-01  6.91137203E-06  2.15612117E-01  2.12642809E-01
  7.83952702E-06  2.23663260E-01  2.22106606E-01 -3.48746718E-05 -7.85964948E-10
 -3.71386421E-05  6.12504378E-10  4.33348000E-10 -1.29437583E-03 -9.38616857E-08
 -1.05837236E-03  5.56878882E-09  3.92635107E-09  3.27258259E-05 -8.68146106E-09
  2.54795743E-05  4.80619318E-08  3.35042894E-08 -4.17655391E-08  5.92885363E-08
 -3.28372666E-02 -7.75838964E-02 -1.17858284E-03  8.56582383E-02 -2.31687982E-02
 -2.00379396E-01  1.37116903E-01 -2.85807174E-02 -2.46462863E-01  1.56322830E-01
 -2.80361213E-02 -2.42887648E-01  2.00328593E-01 -2.30236575E-03 -4.40504925E-04
 -3.23512151E-03  5.52488718E-05 -3.42518267E-04  6.07040125E-02 -8.03244456E-03
 -7.00280091E-02 -1.59227941E-03  5.84556464E-04  1.10763760E-02 -1.15324339E-03
 -1.40610390E-02 -1.17834121E-03  2.33586054E-04  1.18551890E-03  2.48067657E-04
  3.44273588E-02  7.98720166E-02 -2.85970373E-04 -8.69375669E-02  2.34623734E-02
  2.00567749E-01  1.37489162E-01  2.74530211E-02  2.45306738E-01  1.54810019E-01
  2.91409305E-02  2.44006422E-01  2.01750383E-01  1.62998085E-03 -2.96812428E-04
 -2.35572941E-03  1.72778944E-04  2.38741068E-04 -6.01751056E-02 -7.91472496E-03
 -7.04794796E-02  1.06871770E-03 -2.68045400E-04  1.14438124E-02  1.44709374E-03
  1.38417610E-02 -3.09092995E-04  2.13468373E-04  6.58963727E-04 -1.00825270E-03
  3.33085734E-02  7.80944673E-02  5.69361195E-04 -8.57050671E-02 -1.85213189E-01
 -8.19092462E-02 -1.36524687E-01 -2.27540079E-01 -9.96874374E-02 -1.53990280E-01
 -2.24665987E-01 -9.99019811E-02 -2.00179499E-01  2.11301866E-03 -2.59522542E-03
 -1.24451006E-03 -9.08797710E-04 -4.90121617E-04 -6.01520951E-02 -6.44930611E-02
 -2.84203633E-02 -3.55105171E-04 -5.33840060E-04 -1.07791129E-02 -1.29064512E-02
 -5.26468271E-03 -6.11501800E-04 -9.46983318E-04  2.59651661E-04  7.32095372E-04
 -3.23427140E-02 -7.66506671E-02 -1.40514469E-03  8.48296412E-02  1.85355615E-01
  8.18497078E-02 -1.36235955E-01  2.27674793E-01  1.00518611E-01 -1.55267224E-01
  2.24467683E-01  9.90080661E-02 -1.98948864E-01 -1.97481251E-03 -2.30411255E-03
 -1.33111661E-03  3.80291740E-04 -2.32646417E-04  6.04601347E-02 -6.46700165E-02
 -2.85635515E-02  6.73281266E-04  1.42713317E-03 -1.09683021E-02  1.15757908E-02
  5.16962086E-03 -2.78897341E-04 -4.59134680E-04  1.26461971E-03  5.38380851E-04
 -3.23940982E-02 -7.65788078E-02 -1.20188852E-03  8.45696277E-02 -1.63659324E-01
  1.21467611E-01  1.35391944E-01 -2.00352985E-01  1.47794032E-01  1.51980749E-01
 -1.98448915E-01  1.47954884E-01  1.98982020E-01 -2.21250228E-03 -2.01488733E-03
  1.42761385E-03  2.63171465E-04  2.45370813E-04  5.93246023E-02 -5.63819337E-02
  4.20145183E-02  3.45535208E-04 -1.34532910E-03  9.38221595E-03 -1.00229923E-02
  7.72858586E-03  3.25027116E-04 -1.08552577E-03 -5.36228183E-04  1.78506526E-03
  3.29240449E-02  7.71774965E-02  5.50235516E-04 -8.46971839E-02  1.63652713E-01
 -1.21192137E-01  1.35223525E-01  1.99948681E-01 -1.49173308E-01  1.52637631E-01
  1.98949277E-01 -1.46522393E-01  1.98362713E-01  1.61201288E-03 -1.71443855E-03
  1.65109767E-03 -3.28882662E-04  4.22502107E-04 -5.94866495E-02 -5.65846576E-02
  4.20635334E-02  7.38296501E-05  1.21768517E-03  1.07391623E-02  1.01660874E-02
 -7.40952372E-03 -2.52755509E-04 -1.07336780E-03  1.04490727E-04  1.04754015E-03
 -5.30623445E-01 -9.74014176E-01  2.78727423E-01  8.10694155E-01 -9.88634891E-03
  6.55481123E-03 -9.79534977E-02  9.60362494E-03 -6.11902505E-02 -7.34980173E-01
 -3.89835332E-03  6.46951645E-02  8.64852759E-01 -6.06189713E-01  5.42418509E-03
 -7.14706568E-02  1.48798672E-02  1.12470678E-02  5.48036692E-01  1.06622888E-02
  4.66590329E-02 -1.09789836E-02  6.26375103E-03  6.32287715E-02  2.27683505E-02
 -9.82020353E-03 -1.23625101E-03  1.20117691E-02  2.05703745E-03  3.36303956E-03
 -2.31706673E-03 -5.74642460E-03 -3.00019930E-04  6.34058131E-03  3.47587406E-04
  1.12542937E-04 -1.80895707E-02  4.82462931E-04  1.74342613E-04 -2.23429312E-02
  4.18453220E-04  1.30083391E-04 -2.46285198E-02  5.96911264E-05  2.56256900E-06
 -4.40726962E-06  1.04875499E-05 -1.79187366E-05  4.57360448E-03 -9.20492647E-05
 -4.30395379E-05 -7.89366308E-06  1.23083307E-05 -5.63203676E-04  7.55436903E-06
 -1.12668193E-05  6.36617282E-06  7.14765190E-06  6.77056786E-06  5.18478482E-06
  5.18861518E-01  9.62440889E-01 -2.62319190E-01 -8.11746897E-01  2.46080324E-02
 -8.28512982E-02  1.66709779E-03  3.02727775E-01 -6.15211346E-01  5.87174793E-02
 -3.76215325E-01  7.92041260E-01 -5.23873518E-02 -3.07456631E-01  2.83994351E-02
 -6.73173182E-02 -3.17874139E-01 -3.86604689E-01  2.96596351E-01 -2.97915378E-03
  3.01414622E-02  3.40606942E-01  3.77412103E-01 -1.32237366E-02  2.50042390E-02
 -6.19557803E-02 -8.30353168E-03 -2.57590835E-02  7.75900685E-02 -4.88099790E-02
  4.87079417E-04  1.24236528E-03  6.56334171E-05 -1.28351168E-03  1.31942287E-03
 -2.45659048E-03  4.35115374E-03  1.62027155E-03 -3.04410615E-03  5.16231922E-03
  1.68212507E-03 -3.10830972E-03  5.77443231E-03 -3.73110990E-05 -1.00257888E-05
  2.13249225E-05  6.26562641E-07 -6.45947304E-06 -9.57659452E-04 -2.79812117E-04
  5.48254588E-04 -3.24332859E-05 -2.74162855E-05  1.66739268E-04  2.95482857E-05
 -6.52803691E-05  4.30932581E-05  3.09797321E-05  2.91201214E-06  1.02633277E-06
 -5.21516358E-01 -9.65327074E-01  2.65690662E-01  8.12200870E-01  7.92124442E-02
  3.15886439E-02 -1.65870863E-02  6.20783515E-01  3.00685427E-01 -1.33378629E-02
 -7.94713953E-01 -3.77941497E-01  1.45077130E-02  2.83658740E-01  2.12278376E-02
  1.07181453E-02 -3.26256191E-01 -4.08648565E-01 -2.90798578E-01 -1.49555349E-02
 -1.77116216E-02  3.31540267E-01  3.91129437E-01 -9.02227532E-03  6.35524760E-02
  1.98270184E-02  2.41607683E-03  1.13477662E-02 -3.88639491E-02 -6.90234709E-02
 -4.32000609E-04 -1.10323620E-03 -5.49043886E-05  1.12441244E-03  2.29016561E-03
  7.98670203E-04 -3.89545846E-03  2.83205247E-03  9.87600641E-04 -4.59559096E-03
  2.88773628E-03  9.96958295E-04 -5.14401199E-03  3.87157820E-05 -1.06121646E-05
 -5.48422691E-06  1.24095439E-05 -2.01144854E-05  8.23597149E-04 -5.44889397E-04
 -2.02416310E-04 -3.66709592E-05 -6.44833307E-06 -1.56717829E-04  6.83865857E-05
  2.90674948E-05  4.18548048E-05  3.85720069E-05  1.67941998E-05 -9.15580428E-07
  5.14205528E-01  9.57992550E-01 -2.55768856E-01 -8.12157387E-01  9.31711325E-02
  5.20161516E-02  1.53161508E-02  5.88246219E-01  2.91154907E-01 -2.33615677E-02
 -7.70453040E-01 -3.86094044E-01  2.81140844E-02 -2.91796399E-01 -2.39008432E-02
 -1.28104223E-02  2.90975214E-01  3.82403283E-01  3.04689161E-01  2.69002966E-02
  6.29064328E-03 -3.09886411E-01 -4.21752942E-01 -1.08098484E-03  8.65523855E-02
  5.62729366E-02 -4.30800205E-03 -6.43818425E-03 -9.80019247E-03 -1.34841228E-01
  4.16843696E-04  1.04661315E-03  3.43928263E-05 -1.04986645E-03  2.64398253E-03
  1.22517520E-03  3.66907257E-03  3.26848746E-03  1.49811842E-03  4.28152990E-03
  3.37538117E-03  1.56592635E-03  4.84901015E-03 -3.68531719E-05 -2.58017383E-05
 -1.36554384E-05 -1.00642523E-05  2.42587696E-05 -7.72291580E-04 -5.85576067E-04
 -2.80013607E-04  4.57787379E-05  2.28261436E-05  1.53352865E-04  8.94601469E-05
  4.96779544E-05 -4.43419922E-05 -5.27905127E-05 -5.67613931E-06  8.76649609E-06
  5.04125691E-01  9.45262920E-01 -2.44701672E-01 -8.07317492E-01 -6.37642322E-02
  9.03824588E-02 -1.22105005E-02 -2.76321765E-01  5.79473024E-01 -5.70662894E-02
  3.82666215E-01 -7.61666052E-01  9.08023738E-02 -2.55773082E-01  4.57206307E-02
 -8.04905174E-02 -2.90466627E-01 -3.91319118E-01  2.87298561E-01 -7.08107175E-02
  1.10756725E-01  2.86928458E-01  4.38535262E-01 -3.48731079E-02 -5.46860226E-02
  8.03844105E-02 -3.06038111E-02 -5.40149873E-02 -1.34380441E-01 -1.53357882E-02
  4.05813632E-04  1.01755172E-03  3.51396059E-05 -1.03000856E-03 -2.17610080E-03
  3.64172584E-03  3.68754611E-03 -2.74789757E-03  4.55227651E-03  4.29081732E-03
 -2.77623090E-03  4.65643735E-03  4.88423193E-03 -3.60771181E-05  9.53075402E-06
 -2.07916930E-05  6.14321491E-06 -1.78799870E-05 -7.97883457E-04  4.64752280E-04
 -7.79436821E-04 -4.45862158E-05 -5.04427346E-05  1.52407576E-04 -5.76538719E-05
  1.07622041E-04  3.54369670E-05  4.91801738E-05  5.30609835E-06 -1.77566182E-05
 -2.37424275E-03 -5.90775440E-03 -3.30738043E-04  6.54581822E-03 -1.92214487E-04
 -1.08732060E-03  1.87464371E-02 -2.37485374E-04 -1.42965653E-03  2.31532847E-02
 -2.51976506E-04 -1.37491064E-03  2.55394143E-02  3.21728098E-05 -4.31395937E-07
 -5.44263360E-06  2.18323814E-05  6.15044635E-06  4.72939663E-03 -5.39435167E-05
 -2.61739155E-04 -1.66025401E-05 -3.65482466E-06  5.47002171E-04  2.36031157E-05
 -3.49388538E-05 -3.98577536E-06  3.02146798E-06  1.18614362E-05  2.21925346E-05
 -5.19369006E-01 -9.60786910E-01  2.65405663E-01  8.07034604E-01 -4.92697492E-03
  2.06077040E-02  1.19576803E-01  5.07947914E-02  2.63579486E-02  7.06504344E-01
 -5.38058989E-02 -4.41812775E-02 -8.48066521E-01 -5.87903982E-01 -5.36998576E-02
 -4.72118057E-02  7.00486142E-03 -1.64424463E-02  5.61048600E-01  3.71425740E-02
  7.05708602E-02 -3.82001867E-03 -8.89274062E-04 -1.09916646E-01 -7.70249212E-03
 -5.42144363E-02 -7.33779303E-03  1.66841322E-02  5.50350026E-03  3.54433628E-03
 -4.79145750E-04 -1.20534695E-03 -5.45480944E-05  1.25531666E-03  2.98123726E-03
  3.59601554E-03  4.43062089E-03  3.73629748E-03  4.49713073E-03  5.21567689E-03
  3.80909893E-03  4.60664450E-03  5.90991060E-03  2.38697152E-05  2.34608056E-05
  2.79478024E-05  2.11409070E-06 -9.06102353E-06  9.81114790E-04  6.17622451E-04
  7.18489522E-04  2.63796770E-05 -7.50308813E-05  1.52110060E-04  7.54631097E-05
  7.72817757E-05  2.26136801E-05 -5.99322078E-05 -2.97972285E-06  1.41768298E-06
 -5.07726411E-01 -9.50479254E-01  2.47987616E-01  8.10261345E-01  6.45251772E-02
  7.90288583E-02 -2.59880257E-02  4.02121455E-01  5.08647388E-01 -3.96898243E-02
 -5.31798720E-01 -6.69815498E-01  8.54054090E-02  2.84056710E-01  6.24182480E-02
  7.19550512E-02  1.16165989E-01 -4.57892086E-01 -2.77872710E-01 -9.97089408E-02
 -1.22899884E-01 -1.20254595E-01  5.02687900E-01 -5.78593110E-02  4.73746402E-02
  4.23703125E-02 -1.95876377E-02  6.46751064E-02  1.25705181E-01 -7.45309684E-02
 -3.90182515E-04 -9.92754263E-04 -4.30486731E-05  9.98769270E-04  2.42642253E-03
 -2.23919217E-03  3.52061971E-03  3.02896044E-03 -2.80644119E-03  4.10261000E-03
  3.08978841E-03 -2.84154587E-03  4.64016902E-03  3.13078217E-05  1.34426702E-05
 -1.00526525E-05  2.20592941E-05  1.84951765E-05  7.52777349E-04  5.41970699E-04
 -5.16962304E-04 -3.09069473E-05  4.63510589E-05  1.42956005E-04  9.26183250E-05
 -7.96407022E-05 -1.41102404E-05  6.75348734E-05  6.49973684E-06  6.89115991E-07
 -5.12143083E-01 -9.55020558E-01  2.53870575E-01  8.10498068E-01  6.96196230E-02
 -7.89096160E-02  4.79835650E-03  5.19656106E-01 -4.02473734E-01 -1.83496677E-02
 -6.70053780E-01  5.41810860E-01  3.08008597E-02  2.69540831E-01  3.21645026E-02
 -2.33493806E-02 -9.97272721E-02  4.85993076E-01 -3.01892883E-01 -4.06433867E-02
  3.34703126E-02  7.51730581E-02 -5.17124760E-01 -1.02870354E-02  9.13036144E-02
 -7.80236314E-02 -5.72651020E-03  1.90699850E-03  8.20094161E-02  8.83522233E-02
 -9.94273390E-04 -2.43426259E-03 -1.32432225E-04  2.78446147E-03  2.09976906E-03
  4.25540694E-03  9.90950036E-03  2.67825138E-03  5.42172344E-03  1.25514977E-02
  2.71241047E-03  5.50412339E-03  1.34779554E-02  1.75085999E-05  9.74743163E-06
  1.65331386E-05  6.62250344E-06  3.89488791E-06  2.06854113E-03  3.28854318E-04
  6.55178967E-04  6.13232580E-06 -1.52049782E-05  1.57706533E-04  1.80931088E-05
  3.37234685E-05  9.84964812E-06 -1.23433105E-05 -3.23234493E-06 -5.12263515E-06
  5.16035916E-01  6.14127243E-01 -6.03453369E-01 -1.81094295E-01  8.20375397E-02
  1.55778751E-01 -4.83133672E-01 -8.99140129E-02 -1.64648305E-01  6.52241055E-01
  2.53216840E-02  4.00180441E-02 -2.99532869E-01  3.06725867E-01 -1.25667674E-03
 -2.96916175E-02 -1.48658819E-02  6.00186020E-02  2.63695806E-01 -1.25011057E-01
 -2.43319154E-01 -4.06624122E-02  2.56681739E-02  4.40818019E-01 -1.78079798E-01
 -3.88849942E-01 -8.44143133E-02  1.28000889E-01  7.68311243E-02  5.73471947E-02
 -4.55139615E-04 -1.11025491E-03 -4.02091251E-05  1.21044896E-03  1.01338947E-02
  4.40800714E-03  3.78515078E-03  1.29015471E-02  5.61603813E-03  4.64451706E-03
  1.30368102E-02  5.67690655E-03  5.16767936E-03  5.69379812E-06  5.70008299E-05
  2.05262839E-05 -8.62371475E-06 -1.01247263E-05  6.70365945E-04  2.00608911E-03
  8.50399121E-04  8.01298599E-05  9.84530796E-05  4.99467604E-05  1.44595927E-04
  5.42096258E-05  1.39697169E-06 -3.88925033E-05  1.26564023E-06 -2.54107709E-05
  4.64419252E-01  5.12670861E-01 -5.83038769E-01 -8.98562971E-02 -3.85036520E-01
 -2.06034974E-01  4.08514068E-01  3.10790219E-01  2.00229219E-01 -3.74156960E-01
 -6.53635432E-02 -7.04799627E-02  9.53749843E-02  5.08967171E-02  4.18179518E-02
  1.78324312E-03 -8.39473073E-02  7.99397694E-02  9.09667669E-02 -4.51554137E-01
 -2.02768166E-01  1.37766455E-01  1.63261676E-01  1.54849244E-01  4.38023417E-01
  1.29367678E-01 -1.56122814E-01 -3.58735947E-01 -5.22185405E-02  1.78641702E-01
  6.02848751E-04  1.45957416E-03  4.80437494E-05 -1.60341827E-03  4.60965066E-03
 -1.05307368E-02 -4.99615486E-03  5.86291816E-03 -1.34053303E-02 -6.15199563E-03
  5.92564377E-03 -1.35580361E-02 -6.83145193E-03 -1.55036483E-05  2.65686627E-05
 -6.09683995E-05 -2.40752845E-05 -2.26044245E-05 -9.50991392E-04  9.30027192E-04
 -2.07743119E-03  1.00201017E-04  9.24418272E-05 -7.97314669E-05  6.82594248E-05
 -1.54230463E-04 -2.01662986E-05 -1.45136574E-05  2.78581861E-05 -5.67794021E-06
 -4.65305010E-01 -5.09787204E-01  5.87996252E-01  8.30107710E-02 -1.44049352E-01
  3.93957178E-01 -4.25550577E-01  1.18212379E-01 -3.04363712E-01  3.91899872E-01
 -2.97214783E-02  5.17306936E-02 -1.05818636E-01 -6.64284362E-02 -9.90393068E-03
 -5.38060874E-02 -5.87940152E-02  1.12248483E-03 -1.21835112E-01 -1.80120707E-01
  4.80517036E-01  1.85216388E-01  1.09107017E-01 -8.61328136E-02  2.50106648E-01
 -4.44537979E-01 -3.04655923E-01 -2.09443333E-01 -8.02451534E-02  5.33556474E-02
  6.35166754E-04  1.51212123E-03  5.71070320E-05 -1.75463717E-03 -2.93906416E-03
 -1.74802346E-04 -5.68122677E-03 -3.71759509E-03 -2.15451297E-04 -7.22754814E-03
 -3.75812226E-03 -2.32035174E-04 -7.81858049E-03  5.38996122E-07 -1.95550555E-05
 -8.32041720E-06 -2.70175258E-05 -3.27801888E-05 -1.23296251E-03 -8.06044087E-04
 -6.58477706E-05  1.08735797E-05  3.07964937E-05 -7.64939022E-05 -9.34015846E-05
 -2.10852951E-05 -7.18325580E-05 -2.91459214E-05 -3.81394044E-06  1.55027942E-05
  4.74956534E-01  5.47388603E-01 -5.73346729E-01 -1.33668258E-01 -5.23338977E-01
 -1.06352288E-01 -3.29694261E-02  5.74381519E-01  1.23306344E-01 -1.13836860E-02
 -2.02466279E-01 -5.03194955E-02  1.98894647E-02 -1.87712336E-01 -6.67539129E-02
 -1.94989322E-02  3.17207776E-02  5.84322473E-02 -1.96027319E-01  6.15707707E-02
  1.62120855E-03  3.78766738E-01  1.41961097E-01 -3.75367967E-02 -5.19226837E-01
 -8.13726626E-02 -2.67610323E-02 -2.23446740E-02  3.38719709E-01  2.52760180E-01
 -4.67964167E-01 -5.14090799E-01  5.90061029E-01  8.57409048E-02  4.96470394E-01
 -2.37051807E-01  2.18736303E-01 -4.34816787E-01  2.33634848E-01 -2.03257075E-01
  9.50887468E-02 -7.45376101E-02  3.37615770E-02  7.74540851E-02  2.23361556E-02
  1.00499594E-02  6.89807901E-02  1.94828104E-02  1.21966880E-01 -3.33085609E-01
  1.42189820E-01 -2.88606099E-01  3.14004918E-01  3.23656801E-01  8.03871374E-02
 -3.61581012E-02 -2.31553836E-01  2.84001971E-01 -5.37359760E-02  3.79432439E-01
 -4.09988998E-04 -9.50001511E-04 -2.32343023E-05  1.12866424E-03 -5.32785521E-03
  2.27233443E-03 -3.43057725E-03 -6.81594942E-03  2.92963731E-03 -4.38344511E-03
 -6.89475686E-03  2.94255543E-03 -4.77078947E-03  1.80439961E-06  1.39569362E-05
 -1.02538932E-06  3.49106521E-06 -4.43499042E-05  9.47707757E-04  8.28446213E-04
 -3.33249901E-04 -6.65284294E-05  1.14601094E-04 -6.32729966E-05 -2.53138639E-05
  1.43036954E-05 -4.49661581E-05  4.49859701E-05 -1.70310839E-05 -2.61263596E-05