 Entering Gaussian System, Link 0=g16
 Initial command:
 /public/home/zyli/senxu/soft/g16/l1.exe "/tmp/Gau-24465.inp" -scrdir="/tmp/"
 Entering Link 1 = /public/home/zyli/senxu/soft/g16/l1.exe PID=     24466.
  
 Copyright (c) 1988-2019, Gaussian, Inc.  All Rights Reserved.
  
 This is part of the Gaussian(R) 16 program.  It is based on
 the Gaussian(R) 09 system (copyright 2009, Gaussian, Inc.),
 the Gaussian(R) 03 system (copyright 2003, Gaussian, Inc.),
 the Gaussian(R) 98 system (copyright 1998, Gaussian, Inc.),
 the Gaussian(R) 94 system (copyright 1995, Gaussian, Inc.),
 the Gaussian 92(TM) system (copyright 1992, Gaussian, Inc.),
 the Gaussian 90(TM) system (copyright 1990, Gaussian, Inc.),
 the Gaussian 88(TM) system (copyright 1988, Gaussian, Inc.),
 the Gaussian 86(TM) system (copyright 1986, Carnegie Mellon
 University), and the Gaussian 82(TM) system (copyright 1983,
 Carnegie Mellon University). Gaussian is a federally registered
 trademark of Gaussian, Inc.
  
 This software contains proprietary and confidential information,
 including trade secrets, belonging to Gaussian, Inc.
  
 This software is provided under written license and may be
 used, copied, transmitted, or stored only in accord with that
 written license.
  
 The following legend is applicable only to US Government
 contracts under FAR:
  
                    RESTRICTED RIGHTS LEGEND
  
 Use, reproduction and disclosure by the US Government is
 subject to restrictions as set forth in subparagraphs (a)
 and (c) of the Commercial Computer Software - Restricted
 Rights clause in FAR 52.227-19.
  
 Gaussian, Inc.
 340 Quinnipiac St., Bldg. 40, Wallingford CT 06492
  
  
 ---------------------------------------------------------------
 Warning -- This program may not be used in any manner that
 competes with the business of Gaussian, Inc. or will provide
 assistance to any competitor of Gaussian, Inc.  The licensee
 of this program is prohibited from giving any competitor of
 Gaussian, Inc. access to this program.  By using this program,
 the user acknowledges that Gaussian, Inc. is engaged in the
 business of creating and licensing software in the field of
 computational chemistry and represents and warrants to the
 licensee that it is not a competitor of Gaussian, Inc. and that
 it will not use this program in any manner prohibited above.
 ---------------------------------------------------------------
  

 Cite this work as:
 Gaussian 16, Revision C.01,
 M. J. Frisch, G. W. Trucks, H. B. Schlegel, G. E. Scuseria, 
 M. A. Robb, J. R. Cheeseman, G. Scalmani, V. Barone, 
 G. A. Petersson, H. Nakatsuji, X. Li, M. Caricato, A. V. Marenich, 
 J. Bloino, B. G. Janesko, R. Gomperts, B. Mennucci, H. P. Hratchian, 
 J. V. Ortiz, A. F. Izmaylov, J. L. Sonnenberg, D. Williams-Young, 
 F. Ding, F. Lipparini, F. Egidi, J. Goings, B. Peng, A. Petrone, 
 T. Henderson, D. Ranasinghe, V. G. Zakrzewski, J. Gao, N. Rega, 
 G. Zheng, W. Liang, M. Hada, M. Ehara, K. Toyota, R. Fukuda, 
 J. Hasegawa, M. Ishida, T. Nakajima, Y. Honda, O. Kitao, H. Nakai, 
 T. Vreven, K. Throssell, J. A. Montgomery, Jr., J. E. Peralta, 
 F. Ogliaro, M. J. Bearpark, J. J. Heyd, E. N. Brothers, K. N. Kudin, 
 V. N. Staroverov, T. A. Keith, R. Kobayashi, J. Normand, 
 K. Raghavachari, A. P. Rendell, J. C. Burant, S. S. Iyengar, 
 J. Tomasi, M. Cossi, J. M. Millam, M. Klene, C. Adamo, R. Cammi, 
 J. W. Ochterski, R. L. Martin, K. Morokuma, O. Farkas, 
 J. B. Foresman, and D. J. Fox, Gaussian, Inc., Wallingford CT, 2019.
 
 ******************************************
 Gaussian 16:  ES64L-G16RevC.01  3-Jul-2019
                 2-Jun-2024 
 ******************************************
 %chk=is_6-31gd.chk
 %mem=8GB
 %nprocshared=8
 Will use up to    8 processors via shared memory.
 -------------------------------------------
 #p RHF/6-31g(d) nosymm int=nobasistransform
 -------------------------------------------
 1/38=1,172=1/1;
 2/12=2,15=1,17=6,18=5,40=1/2;
 3/5=1,6=6,7=1,11=1,25=1,30=1,60=-1,116=1/1,2,3;
 4//1;
 5/5=2,38=5/2;
 6/7=2,8=2,9=2,10=2,28=1/1;
 99/5=1,9=1/99;
 Leave Link    1 at Sun Jun  2 12:49:51 2024, MaxMem=  1073741824 cpu:               0.2 elap:               0.0
 (Enter /public/home/zyli/senxu/soft/g16/l101.exe)
 -----
 title
 -----
 Symbolic Z-matrix:
 Charge =  0 Multiplicity = 1
 C                    -3.6733   -1.52057  -1.29847 
 C                    -2.30906  -1.56402  -1.52145 
 C                    -1.44212  -0.61421  -0.93024 
 C                    -1.98986   0.37196  -0.05837 
 C                    -3.38506   0.38108   0.1672 
 C                    -4.2154   -0.53732  -0.45196 
 C                    -0.01288  -0.6114   -1.15085 
 C                    -1.0591    1.25905   0.62021 
 C                     0.11805   1.62758  -0.15184 
 C                     0.64828   0.66912  -1.06081 
 C                     1.81851   0.98508  -1.79061 
 H                     2.22668   0.26237  -2.48954 
 C                     2.42776   2.21815  -1.65563 
 C                     1.90638   3.16426  -0.75634 
 C                     0.78246   2.86569  -0.00697 
 H                    -4.32574  -2.2409   -1.78452 
 H                    -1.90476  -2.31849  -2.1879 
 H                    -3.81995   1.13521   0.81454 
 H                    -5.2885   -0.49481  -0.28536 
 H                     3.30976   2.45517  -2.24446 
 H                     2.38582   4.13356  -0.64908 
 H                     0.39354   3.60994   0.67942 
 C                    -0.19407  -0.24758   1.89547 
 C                     0.48658  -1.1844    1.08717 
 C                     1.94978  -1.10183   1.00808 
 O                     2.63097  -0.1365    1.30659 
 C                     0.60291  -1.7161   -1.9777 
 H                     0.19251  -2.69166  -1.70514 
 H                     0.41177  -1.56107  -3.04908 
 H                     1.68223  -1.77242  -1.83153 
 C                    -1.60319   2.29045   1.5903 
 H                    -0.81874   2.65515   2.25989 
 H                    -2.01251   3.15846   1.05636 
 H                    -2.40207   1.88655   2.2145 
 O                     2.49624  -2.26969   0.55416 
 C                     3.92845  -2.28233   0.50035 
 H                     4.19995  -3.26892   0.1213 
 H                     4.30165  -1.49872  -0.16488 
 H                     4.35468  -2.12601   1.49569 
 H                     0.05561  -2.16828   0.93344 
 H                     0.44962   0.48563   2.37555 
 C                    -1.35973  -0.74256   2.725 
 H                    -1.95487   0.07031   3.14988 
 H                    -2.02609  -1.38581   2.14175 
 H                    -0.98063  -1.33638   3.56794 
 
 ITRead=  0  0  0  0  0  0  0  0  0  0  0  0  0  0  0  0  0  0  0  0
 ITRead=  0  0  0  0  0  0  0  0  0  0  0  0  0  0  0  0  0  0  0  0
 ITRead=  0  0  0  0  0
 MicOpt= -1 -1 -1 -1 -1 -1 -1 -1 -1 -1 -1 -1 -1 -1 -1 -1 -1 -1 -1 -1
 MicOpt= -1 -1 -1 -1 -1 -1 -1 -1 -1 -1 -1 -1 -1 -1 -1 -1 -1 -1 -1 -1
 MicOpt= -1 -1 -1 -1 -1
 NAtoms=     45 NQM=       45 NQMF=       0 NMMI=      0 NMMIF=      0
                NMic=       0 NMicF=      0.
                    Isotopes and Nuclear Properties:
 (Nuclear quadrupole moments (NQMom) in fm**2, nuclear magnetic moments (NMagM)
  in nuclear magnetons)

  Atom         1           2           3           4           5           6           7           8           9          10
 IAtWgt=          12          12          12          12          12          12          12          12          12          12
 AtmWgt=  12.0000000  12.0000000  12.0000000  12.0000000  12.0000000  12.0000000  12.0000000  12.0000000  12.0000000  12.0000000
 NucSpn=           0           0           0           0           0           0           0           0           0           0
 AtZEff=  -0.0000000  -0.0000000  -0.0000000  -0.0000000  -0.0000000  -0.0000000  -0.0000000  -0.0000000  -0.0000000  -0.0000000
 NQMom=    0.0000000   0.0000000   0.0000000   0.0000000   0.0000000   0.0000000   0.0000000   0.0000000   0.0000000   0.0000000
 NMagM=    0.0000000   0.0000000   0.0000000   0.0000000   0.0000000   0.0000000   0.0000000   0.0000000   0.0000000   0.0000000
 AtZNuc=   6.0000000   6.0000000   6.0000000   6.0000000   6.0000000   6.0000000   6.0000000   6.0000000   6.0000000   6.0000000

  Atom        11          12          13          14          15          16          17          18          19          20
 IAtWgt=          12           1          12          12          12           1           1           1           1           1
 AtmWgt=  12.0000000   1.0078250  12.0000000  12.0000000  12.0000000   1.0078250   1.0078250   1.0078250   1.0078250   1.0078250
 NucSpn=           0           1           0           0           0           1           1           1           1           1
 AtZEff=  -0.0000000  -0.0000000  -0.0000000  -0.0000000  -0.0000000  -0.0000000  -0.0000000  -0.0000000  -0.0000000  -0.0000000
 NQMom=    0.0000000   0.0000000   0.0000000   0.0000000   0.0000000   0.0000000   0.0000000   0.0000000   0.0000000   0.0000000
 NMagM=    0.0000000   2.7928460   0.0000000   0.0000000   0.0000000   2.7928460   2.7928460   2.7928460   2.7928460   2.7928460
 AtZNuc=   6.0000000   1.0000000   6.0000000   6.0000000   6.0000000   1.0000000   1.0000000   1.0000000   1.0000000   1.0000000

  Atom        21          22          23          24          25          26          27          28          29          30
 IAtWgt=           1           1          12          12          12          16          12           1           1           1
 AtmWgt=   1.0078250   1.0078250  12.0000000  12.0000000  12.0000000  15.9949146  12.0000000   1.0078250   1.0078250   1.0078250
 NucSpn=           1           1           0           0           0           0           0           1           1           1
 AtZEff=  -0.0000000  -0.0000000  -0.0000000  -0.0000000  -0.0000000  -0.0000000  -0.0000000  -0.0000000  -0.0000000  -0.0000000
 NQMom=    0.0000000   0.0000000   0.0000000   0.0000000   0.0000000   0.0000000   0.0000000   0.0000000   0.0000000   0.0000000
 NMagM=    2.7928460   2.7928460   0.0000000   0.0000000   0.0000000   0.0000000   0.0000000   2.7928460   2.7928460   2.7928460
 AtZNuc=   1.0000000   1.0000000   6.0000000   6.0000000   6.0000000   8.0000000   6.0000000   1.0000000   1.0000000   1.0000000

  Atom        31          32          33          34          35          36          37          38          39          40
 IAtWgt=          12           1           1           1          16          12           1           1           1           1
 AtmWgt=  12.0000000   1.0078250   1.0078250   1.0078250  15.9949146  12.0000000   1.0078250   1.0078250   1.0078250   1.0078250
 NucSpn=           0           1           1           1           0           0           1           1           1           1
 AtZEff=  -0.0000000  -0.0000000  -0.0000000  -0.0000000  -0.0000000  -0.0000000  -0.0000000  -0.0000000  -0.0000000  -0.0000000
 NQMom=    0.0000000   0.0000000   0.0000000   0.0000000   0.0000000   0.0000000   0.0000000   0.0000000   0.0000000   0.0000000
 NMagM=    0.0000000   2.7928460   2.7928460   2.7928460   0.0000000   0.0000000   2.7928460   2.7928460   2.7928460   2.7928460
 AtZNuc=   6.0000000   1.0000000   1.0000000   1.0000000   8.0000000   6.0000000   1.0000000   1.0000000   1.0000000   1.0000000

  Atom        41          42          43          44          45
 IAtWgt=           1          12           1           1           1
 AtmWgt=   1.0078250  12.0000000   1.0078250   1.0078250   1.0078250
 NucSpn=           1           0           1           1           1
 AtZEff=  -0.0000000  -0.0000000  -0.0000000  -0.0000000  -0.0000000
 NQMom=    0.0000000   0.0000000   0.0000000   0.0000000   0.0000000
 NMagM=    2.7928460   0.0000000   2.7928460   2.7928460   2.7928460
 AtZNuc=   1.0000000   6.0000000   1.0000000   1.0000000   1.0000000
 Leave Link  101 at Sun Jun  2 12:49:51 2024, MaxMem=  1073741824 cpu:               0.8 elap:               0.1
 (Enter /public/home/zyli/senxu/soft/g16/l202.exe)
                          Input orientation:                          
 ---------------------------------------------------------------------
 Center     Atomic      Atomic             Coordinates (Angstroms)
 Number     Number       Type             X           Y           Z
 ---------------------------------------------------------------------
      1          6           0       -3.673296   -1.520570   -1.298474
      2          6           0       -2.309063   -1.564018   -1.521446
      3          6           0       -1.442123   -0.614214   -0.930244
      4          6           0       -1.989857    0.371963   -0.058369
      5          6           0       -3.385055    0.381082    0.167201
      6          6           0       -4.215398   -0.537318   -0.451963
      7          6           0       -0.012877   -0.611404   -1.150851
      8          6           0       -1.059104    1.259047    0.620211
      9          6           0        0.118051    1.627576   -0.151841
     10          6           0        0.648281    0.669116   -1.060814
     11          6           0        1.818509    0.985082   -1.790612
     12          1           0        2.226677    0.262367   -2.489540
     13          6           0        2.427763    2.218148   -1.655627
     14          6           0        1.906381    3.164256   -0.756336
     15          6           0        0.782456    2.865692   -0.006974
     16          1           0       -4.325738   -2.240900   -1.784520
     17          1           0       -1.904762   -2.318485   -2.187898
     18          1           0       -3.819949    1.135209    0.814541
     19          1           0       -5.288502   -0.494805   -0.285358
     20          1           0        3.309763    2.455172   -2.244460
     21          1           0        2.385822    4.133562   -0.649076
     22          1           0        0.393538    3.609944    0.679415
     23          6           0       -0.194070   -0.247575    1.895472
     24          6           0        0.486580   -1.184398    1.087169
     25          6           0        1.949780   -1.101829    1.008085
     26          8           0        2.630971   -0.136497    1.306587
     27          6           0        0.602908   -1.716097   -1.977704
     28          1           0        0.192510   -2.691663   -1.705138
     29          1           0        0.411766   -1.561074   -3.049082
     30          1           0        1.682232   -1.772421   -1.831526
     31          6           0       -1.603193    2.290454    1.590304
     32          1           0       -0.818736    2.655145    2.259894
     33          1           0       -2.012510    3.158459    1.056359
     34          1           0       -2.402072    1.886554    2.214497
     35          8           0        2.496238   -2.269693    0.554161
     36          6           0        3.928454   -2.282334    0.500349
     37          1           0        4.199949   -3.268921    0.121299
     38          1           0        4.301652   -1.498721   -0.164876
     39          1           0        4.354676   -2.126007    1.495694
     40          1           0        0.055614   -2.168279    0.933439
     41          1           0        0.449620    0.485634    2.375553
     42          6           0       -1.359732   -0.742557    2.725001
     43          1           0       -1.954865    0.070311    3.149882
     44          1           0       -2.026094   -1.385806    2.141754
     45          1           0       -0.980628   -1.336381    3.567942
 ---------------------------------------------------------------------
                    Distance matrix (angstroms):
                    1          2          3          4          5
     1  C    0.000000
     2  C    1.383017   0.000000
     3  C    2.436228   1.415356   0.000000
     4  C    2.820197   2.447552   1.425736   0.000000
     5  C    2.418174   2.791541   2.443355   1.413344   0.000000
     6  C    1.406144   2.414958   2.815266   2.436132   1.384302
     7  C    3.774525   2.513421   1.446174   2.463529   3.754181
     8  C    4.271021   3.757498   2.461650   1.453853   2.527071
     9  C    5.059635   4.237095   2.840013   2.455316   3.731928
    10  C    4.850488   3.734294   2.456374   2.837775   4.225965
    11  C    6.056436   4.858725   3.732252   4.228502   5.592399
    12  H    6.277514   4.984559   4.081653   4.868446   6.209984
    13  C    7.164391   6.063028   4.850203   5.047276   6.362890
    14  C    7.305772   6.380591   5.051689   4.844041   6.049651
    15  C    6.384434   5.610120   4.232130   3.729215   4.855077
    16  H    1.086645   2.143445   3.419229   3.906788   3.401307
    17  H    2.134351   1.084822   2.168010   3.432294   3.876264
    18  H    3.396984   3.876266   3.429112   2.166507   1.084845
    19  H    2.165061   3.398262   3.901893   3.418168   2.143618
    20  H    8.091015   6.946067   5.807643   6.099568   7.412054
    21  H    8.312872   7.434070   6.105211   5.800442   6.931842
    22  H    6.839105   6.238407   4.878951   4.087715   4.996567
    23  C    4.891505   4.228658   3.110745   2.725101   3.683004
    24  C    4.807169   3.842474   2.848677   3.141219   4.276287
    25  C    6.092171   4.974926   3.936990   4.339369   5.600587
    26  O    6.960301   5.868520   4.671373   4.844965   6.144807
    27  C    4.334225   2.951419   2.548229   3.842691   4.990253
    28  H    4.059716   2.750126   2.754683   4.106139   5.074090
    29  H    4.444547   3.120351   2.970341   4.295205   5.341563
    30  H    5.387880   4.008743   3.451861   4.607245   5.857464
    31  C    5.210976   5.003818   3.849182   2.558953   2.974215
    32  H    6.184423   5.858408   4.610239   3.458148   4.017054
    33  H    5.495158   5.388396   4.301743   3.001282   3.223089
    34  H    5.056231   5.086489   4.130949   2.762214   2.724724
    35  O    6.485105   5.281765   4.522693   5.242002   6.462658
    36  C    7.848736   6.596230   5.802785   6.510289   7.790519
    37  H    8.189046   6.926221   6.323463   7.183454   8.417655
    38  H    8.055142   6.748785   5.861663   6.564594   7.920189
    39  H    8.521870   7.336510   6.463248   6.993430   8.243411
    40  H    4.393829   3.461689   2.851605   3.408880   4.350237
    41  H    5.875523   5.195961   3.964423   3.447890   4.426340
    42  C    4.705979   4.428130   3.658425   3.063717   3.450629
    43  H    5.027104   4.961632   4.168802   3.222591   3.322410
    44  H    3.816622   3.678432   3.220799   2.816311   2.977839
    45  H    5.564745   5.264829   4.579103   4.133656   4.505107
                    6          7          8          9         10
     6  C    0.000000
     7  C    4.260882   0.000000
     8  C    3.786644   2.780259   0.000000
     9  C    4.853413   2.455238   1.455188   0.000000
    10  C    5.047926   1.443942   2.467595   1.423384   0.000000
    11  C    6.365353   2.512377   3.764011   2.447433   1.414876
    12  H    6.803789   2.751575   4.632524   3.431463   2.167495
    13  C    7.291981   3.770661   4.272886   2.818673   2.433076
    14  C    7.160340   4.253799   3.784020   2.434117   2.810916
    15  C    6.062758   3.745825   2.523096   1.412569   2.439985
    16  H    2.165658   4.653769   5.357542   6.113756   5.807995
    17  H    3.394859   2.751149   4.625943   4.879416   4.088289
    18  H    2.134891   4.626794   2.770445   4.084625   4.868190
    19  H    1.086792   5.347419   4.667318   5.809746   6.099298
    20  H    8.294341   4.651860   5.359483   3.905252   3.416797
    21  H    8.089010   5.340434   4.662772   3.416137   3.897559
    22  H    6.302546   4.618964   2.764126   2.167178   3.426625
    23  C    4.665349   3.073318   2.155107   2.793761   3.207726
    24  C    4.989613   2.363581   2.928756   3.094860   2.841741
    25  C    6.360804   2.958639   3.844160   3.485730   3.018359
    26  O    7.079966   3.640669   4.004411   3.399078   3.191341
    27  C    5.189747   1.511034   4.285199   3.840444   2.555775
    28  H    5.063724   2.162613   4.752041   4.590654   3.452205
    29  H    5.404049   2.164596   4.855950   4.318306   2.997148
    30  H    6.181481   2.164411   4.766103   4.102193   2.761187
    31  C    4.357839   4.296954   1.516876   2.537155   3.837486
    32  H    5.392894   4.790922   2.166893   2.783870   4.138061
    33  H    4.559223   4.804391   2.169556   2.888363   4.214150
    34  H    4.034020   4.824273   2.176942   3.466648   4.638369
    35  O    7.004246   3.457260   5.009673   4.619840   3.828797
    36  C    8.382977   4.588307   6.118127   5.498356   4.680579
    37  H    8.866135   5.140882   6.957661   6.380610   5.433219
    38  H    8.575946   4.513827   6.079420   5.222683   4.341583
    39  H    8.931040   5.326701   6.444694   5.895146   5.299605
    40  H    4.777124   2.602463   3.617633   3.948449   3.518396
    41  H    5.550105   3.721951   2.440418   2.793151   3.446991
    42  C    4.276687   4.105295   2.920092   4.009687   4.511910
    43  H    4.295638   4.767846   2.935084   4.198027   4.986471
    44  H    3.498621   3.936240   3.200845   4.351828   4.650960
    45  H    5.221291   4.871257   3.928298   4.881488   5.301014
                   11         12         13         14         15
    11  C    0.000000
    12  H    1.085089   0.000000
    13  C    1.381978   2.135632   0.000000
    14  C    2.413762   3.395224   1.405590   0.000000
    15  C    2.791319   3.876365   2.417520   1.383435   0.000000
    16  H    6.939652   7.049648   8.093794   8.313374   7.438454
    17  H    4.993409   4.880632   6.295643   6.828955   6.233238
    18  H    6.213016   6.945537   6.805027   6.274993   4.985137
    19  H    7.413869   7.868268   8.293280   8.085598   6.944564
    20  H    2.142657   2.457953   1.086659   2.164901   3.400316
    21  H    3.396745   4.289381   2.164189   1.086703   2.142562
    22  H    3.875755   4.960740   3.395230   2.132771   1.084573
    23  C    4.376886   5.034718   5.056096   4.804641   3.776948
    24  C    3.842174   4.232483   4.782096   4.932052   4.205701
    25  C    3.493585   3.764450   4.283232   4.616768   4.258428
    26  O    3.392739   3.838375   3.789506   3.959249   3.762391
    27  C    2.968006   2.610157   4.348806   5.196982   4.990872
    28  H    4.021148   3.671432   5.394910   6.174898   5.840890
    29  H    3.169477   2.632855   4.504273   5.460705   5.384059
    30  H    2.761172   2.206754   4.063422   5.057376   5.064650
    31  C    4.984239   5.951989   5.175896   4.311306   2.928057
    32  H    5.113782   6.128381   5.105098   4.096718   2.783314
    33  H    5.244570   6.239508   5.287256   4.317824   3.004700
    34  H    5.887856   6.796416   6.197993   5.387127   4.004356
    35  O    4.068272   3.968388   5.002856   5.620777   5.442803
    36  C    4.514020   4.279134   5.211012   5.944189   6.054490
    37  H    5.236717   4.814590   6.033741   6.885961   7.023474
    38  H    3.870180   3.579248   4.421415   5.275462   5.608723
    39  H    5.187564   5.110264   5.702236   6.249214   6.319480
    40  H    4.524593   4.726345   5.618816   5.892080   5.172382
    41  H    4.413642   5.184295   4.813010   4.371029   3.384064
    42  C    5.785906   6.408092   6.503906   6.168500   5.007207
    43  H    6.283601   7.023194   6.849347   6.303987   5.027208
    44  H    5.988788   6.500109   6.873531   6.675803   5.529939
    45  H    6.475991   7.038174   7.178961   6.876768   5.791883
                   16         17         18         19         20
    16  H    0.000000
    17  H    2.455577   0.000000
    18  H    4.290577   4.960906   0.000000
    19  H    2.494644   4.288958   2.454256   0.000000
    20  H    8.975829   7.069814   7.869726   9.298957   0.000000
    21  H    9.325665   7.899746   7.045842   8.969355   2.493173
    22  H    7.910431   6.974951   4.888358   7.075686   4.287996
    23  C    5.881017   4.887642   4.028337   5.547106   6.059763
    24  C    5.702736   4.210788   4.899091   5.975863   5.684768
    25  C    6.962633   5.152868   6.191250   7.377954   5.008079
    26  O    7.898054   6.127428   6.593460   8.085835   4.448308
    27  C    4.960271   2.587559   5.957201   6.250144   4.979730
    28  H    4.541371   2.184232   6.090448   6.073175   6.041361
    29  H    4.950275   2.584881   6.332846   6.424030   5.017573
    30  H    6.026391   3.645780   6.762394   7.253556   4.548837
    31  C    6.271751   5.967250   2.617328   4.985707   6.234556
    32  H    7.254489   6.760126   3.661493   6.031526   6.113403
    33  H    6.524929   6.366610   2.723757   5.087108   6.302111
    34  H    6.060405   6.108253   2.129500   4.500180   7.268472
    35  O    7.211769   5.185564   7.180207   8.028524   5.551437
    36  C    8.564697   6.422958   8.474436   9.421511   5.510056
    37  H    8.796381   6.595697   9.175822   9.894028   6.257355
    38  H    8.809423   6.579073   8.594024   9.643309   4.576219
    39  H    9.280226   7.265429   8.827457   9.941018   6.005647
    40  H    5.156435   3.688954   5.093835   5.731104   6.485740
    41  H    6.895233   5.850751   4.592159   6.400606   5.779621
    42  C    5.601607   5.188177   3.637105   4.955691   7.531613
    43  H    5.942311   5.848141   3.172753   4.820100   7.905871
    44  H    4.629814   4.430632   3.366738   4.162699   7.903376
    45  H    6.376266   5.911704   4.663874   5.840715   8.158881
                   21         22         23         24         25
    21  H    0.000000
    22  H    2.451175   0.000000
    23  C    5.685502   4.087118   0.000000
    24  C    5.907822   4.812550   1.412188   0.000000
    25  C    5.508687   4.972999   2.472509   1.467660   0.000000
    26  O    4.702991   4.408545   2.887902   2.396801   1.218602
    27  C    6.257998   5.955739   4.218201   3.112825   3.332615
    28  H    7.246349   6.740679   4.368913   3.186739   3.602381
    29  H    6.487357   6.375065   5.151789   4.154041   4.363141
    30  H    6.064146   6.077451   4.442542   3.208447   2.929960
    31  C    4.931948   2.560802   2.918963   4.085938   4.946734
    32  H    4.573512   2.208883   2.991454   4.221519   4.831828
    33  H    4.817121   2.476892   3.951190   5.010669   5.818258
    34  H    6.014401   3.625188   3.087322   4.364164   5.415208
    35  O    6.516260   6.245572   3.622959   2.345355   1.366956
    36  C    6.698105   6.873619   4.804354   3.660098   2.359351
    37  H    7.660371   7.881563   5.619931   4.366606   3.247451
    38  H    5.968875   6.487268   5.101168   4.027554   2.657943
    39  H    6.903523   7.018409   4.937552   4.001960   2.658990
    40  H    6.902711   5.793667   2.162627   1.085074   2.175029
    41  H    5.119047   3.555467   1.087387   2.109575   2.576914
    42  C    7.013566   5.118852   1.513900   2.507306   3.745630
    43  H    7.055753   4.913981   2.185176   3.433618   4.605156
    44  H    7.597181   5.740259   2.170838   2.732443   4.144083
    45  H    7.683522   5.890505   2.145071   2.886180   3.898099
                   26         27         28         29         30
    26  O    0.000000
    27  C    4.170701   0.000000
    28  H    4.641708   1.092908   0.000000
    29  H    5.091772   1.099281   1.769884   0.000000
    30  H    3.663892   1.090633   1.755065   1.772341   0.000000
    31  C    4.888633   5.800863   6.237466   6.357533   6.245790
    32  H    4.539002   6.251885   6.732938   6.890273   6.526707
    33  H    5.699234   6.309298   6.834611   6.708633   6.804747
    34  H    5.499869   6.291546   6.561666   6.892684   6.814686
    35  O    2.266015   3.209596   3.254175   4.222621   2.569317
    36  C    2.634027   4.185765   4.357637   5.048343   3.277677
    37  H    3.698470   4.444747   4.441696   5.226699   3.520218
    38  H    2.609987   4.124840   4.547589   4.842907   3.116728
    39  H    2.639142   5.129160   5.280996   6.043234   4.282216
    40  H    3.301491   2.996457   2.693466   4.044257   3.232278
    41  H    2.507594   4.880775   5.178162   5.798027   4.931294
    42  C    4.278425   5.187983   5.082775   6.094933   5.574594
    43  H    4.946756   6.002132   5.984224   6.832973   6.437279
    44  H    4.893519   4.898028   4.628828   5.737478   5.448679
    45  H    4.426861   5.779789   5.569418   6.765667   6.036158
                   31         32         33         34         35
    31  C    0.000000
    32  H    1.093948   0.000000
    33  H    1.098212   1.768309   0.000000
    34  H    1.091311   1.760610   1.763742   0.000000
    35  O    6.218832   6.176780   7.074309   6.635100   0.000000
    36  C    7.259305   7.071811   8.075050   7.771325   1.433282
    37  H    8.169522   8.053282   8.987780   8.634065   2.021993
    38  H    7.232268   7.025132   7.940364   7.877907   2.090677
    39  H    7.416892   7.085733   8.286112   7.891196   2.088282
    40  H    4.802438   5.078325   5.715451   4.911517   2.472000
    41  H    2.843947   2.515727   3.866051   3.181299   3.885607
    42  C    3.247455   3.471798   4.292833   2.873902   4.681153
    43  H    2.735871   2.960445   3.731329   2.091334   5.659126
    44  H    3.741367   4.219118   4.672110   3.294691   4.873725
    45  H    4.177627   4.203508   5.251325   3.773543   4.694949
                   36         37         38         39         40
    36  C    0.000000
    37  H    1.091211   0.000000
    38  H    1.093549   1.796064   0.000000
    39  H    1.093990   1.794200   1.775892   0.000000
    40  H    3.898649   4.364229   4.436603   4.335880   0.000000
    41  H    4.824969   5.765701   5.022907   4.779569   3.046012
    42  C    5.940110   6.638662   6.401128   6.006629   2.691762
    43  H    6.867926   7.629189   7.252137   6.882620   3.737102
    44  H    6.241363   6.811165   6.735997   6.455968   2.530968
    45  H    5.865496   6.515553   6.470144   5.777819   2.950671
                   41         42         43         44         45
    41  H    0.000000
    42  C    2.214570   0.000000
    43  H    2.560005   1.093372   0.000000
    44  H    3.112252   1.094525   1.772476   0.000000
    45  H    2.605214   1.098588   1.761447   1.769026   0.000000
 Symmetry turned off by external request.
 Stoichiometry    C21H22O2
 Framework group  C1[X(C21H22O2)]
 Deg. of freedom   129
 Full point group                 C1      NOp   1
 Rotational constants (GHZ):           0.3778489           0.2496123           0.2189923
 Leave Link  202 at Sun Jun  2 12:49:51 2024, MaxMem=  1073741824 cpu:               0.1 elap:               0.0
 (Enter /public/home/zyli/senxu/soft/g16/l301.exe)
 Standard basis: 6-31G(d) (6D, 7F)
   389 basis functions,   732 primitive gaussians,   389 cartesian basis functions
    82 alpha electrons       82 beta electrons
       nuclear repulsion energy      2005.5510545031 Hartrees.
 IExCor=    0 DFT=F Ex=HF Corr=None ExCW=0 ScaHFX=  1.000000
 ScaDFX=  1.000000  1.000000  1.000000  1.000000 ScalE2=  1.000000  1.000000
 IRadAn=      5 IRanWt=     -1 IRanGd=            0 ICorTp=0 IEmpDi=  4
 NAtoms=   45 NActive=   45 NUniq=   45 SFac= 1.00D+00 NAtFMM=   60 NAOKFM=F Big=F
 Integral buffers will be    131072 words long.
 Raffenetti 1 integral format.
 Two-electron integral symmetry is turned off.
 Leave Link  301 at Sun Jun  2 12:49:51 2024, MaxMem=  1073741824 cpu:               0.3 elap:               0.1
 (Enter /public/home/zyli/senxu/soft/g16/l302.exe)
 NPDir=0 NMtPBC=     1 NCelOv=     1 NCel=       1 NClECP=     1 NCelD=      1
         NCelK=      1 NCelE2=     1 NClLst=     1 CellRange=     0.0.
 One-electron integrals computed using PRISM.
 NBasis=   389 RedAO= T EigKep=  3.00D-04  NBF=   389
 NBsUse=   389 1.00D-06 EigRej= -1.00D+00 NBFU=   389
 Leave Link  302 at Sun Jun  2 12:49:52 2024, MaxMem=  1073741824 cpu:               1.6 elap:               0.2
 (Enter /public/home/zyli/senxu/soft/g16/l303.exe)
 DipDrv:  MaxL=1.
 Leave Link  303 at Sun Jun  2 12:49:52 2024, MaxMem=  1073741824 cpu:               0.3 elap:               0.1
 (Enter /public/home/zyli/senxu/soft/g16/l401.exe)
 ExpMin= 1.61D-01 ExpMax= 5.48D+03 ExpMxC= 8.25D+02 IAcc=3 IRadAn=         5 AccDes= 0.00D+00
 Harris functional with IExCor=  205 and IRadAn=       5 diagonalized for initial guess.
 HarFok:  IExCor=  205 AccDes= 0.00D+00 IRadAn=         5 IDoV= 1 UseB2=F ITyADJ=14
 ICtDFT=  3500011 ScaDFX=  1.000000  1.000000  1.000000  1.000000
 FoFCou: FMM=F IPFlag=           0 FMFlag=      100000 FMFlg1=           0
         NFxFlg=           0 DoJE=T BraDBF=F KetDBF=T FulRan=T
         wScrn=  0.000000 ICntrl=       500 IOpCl=  0 I1Cent=   200000004 NGrid=           0
         NMat0=    1 NMatS0=      1 NMatT0=    0 NMatD0=    1 NMtDS0=    0 NMtDT0=    0
 Symmetry not used in FoFCou.
 Harris En= -959.153089763873    
 JPrj=0 DoOrth=F DoCkMO=F.
 Leave Link  401 at Sun Jun  2 12:49:53 2024, MaxMem=  1073741824 cpu:              12.6 elap:               1.6
 (Enter /public/home/zyli/senxu/soft/g16/l502.exe)
 Two-electron integral symmetry not used.
 Closed shell SCF:
 Using DIIS extrapolation, IDIIS=  1040.
 NGot=  1073741824 LenX=  1073431529 LenY=  1073279767
 Requested convergence on RMS density matrix=1.00D-08 within 128 cycles.
 Requested convergence on MAX density matrix=1.00D-06.
 Requested convergence on             energy=1.00D-06.
 No special actions if energy rises.
 Fock matrices will be formed incrementally for  20 cycles.
 Integral accuracy reduced to 1.0D-05 until final iterations.

 Cycle   1  Pass 0  IDiag  1:
 FoFJK:  IHMeth= 1 ICntrl=       0 DoSepK=F KAlg= 0 I1Cent=           0 FoldK=F
 IRaf= 840000000 NMat=       1 IRICut=       1 DoRegI=T DoRafI=F ISym2E= 0 IDoP0=0 IntGTp=1.
 FoFCou: FMM=F IPFlag=           0 FMFlag=      100000 FMFlg1=           0
         NFxFlg=           0 DoJE=F BraDBF=F KetDBF=F FulRan=T
         wScrn=  0.000000 ICntrl=         0 IOpCl=  0 I1Cent=           0 NGrid=           0
         NMat0=    1 NMatS0=      1 NMatT0=    0 NMatD0=    1 NMtDS0=    0 NMtDT0=    0
 Symmetry not used in FoFCou.
 E= -956.769779981454    
 DIIS: error= 4.91D-02 at cycle   1 NSaved=   1.
 NSaved= 1 IEnMin= 1 EnMin= -956.769779981454     IErMin= 1 ErrMin= 4.91D-02
 ErrMax= 4.91D-02  0.00D+00 EMaxC= 1.00D-01 BMatC= 1.48D+00 BMatP= 1.48D+00
 IDIUse=3 WtCom= 5.09D-01 WtEn= 4.91D-01
 Coeff-Com:  0.100D+01
 Coeff-En:   0.100D+01
 Coeff:      0.100D+01
 Gap=     0.322 Goal=   None    Shift=    0.000
 GapD=    0.322 DampG=1.000 DampE=0.500 DampFc=0.5000 IDamp=-1.
 Damping current iteration by 5.00D-01
 RMSDP=4.28D-03 MaxDP=1.10D-01              OVMax= 1.23D-01

 Cycle   2  Pass 0  IDiag  1:
 RMSU=  2.04D-03    CP:  9.61D-01
 E= -957.254998931885     Delta-E=       -0.485218950431 Rises=F Damp=T
 DIIS: error= 2.93D-02 at cycle   2 NSaved=   2.
 NSaved= 2 IEnMin= 2 EnMin= -957.254998931885     IErMin= 2 ErrMin= 2.93D-02
 ErrMax= 2.93D-02  0.00D+00 EMaxC= 1.00D-01 BMatC= 3.35D-01 BMatP= 1.48D+00
 IDIUse=3 WtCom= 7.07D-01 WtEn= 2.93D-01
 Coeff-Com: -0.714D+00 0.171D+01
 Coeff-En:   0.000D+00 0.100D+01
 Coeff:     -0.505D+00 0.150D+01
 Gap=     0.324 Goal=   None    Shift=    0.000
 RMSDP=2.25D-03 MaxDP=5.82D-02 DE=-4.85D-01 OVMax= 4.29D-02

 Cycle   3  Pass 0  IDiag  1:
 RMSU=  1.24D-03    CP:  9.24D-01  1.87D+00
 E= -957.691072544219     Delta-E=       -0.436073612334 Rises=F Damp=F
 DIIS: error= 3.47D-03 at cycle   3 NSaved=   3.
 NSaved= 3 IEnMin= 3 EnMin= -957.691072544219     IErMin= 3 ErrMin= 3.47D-03
 ErrMax= 3.47D-03  0.00D+00 EMaxC= 1.00D-01 BMatC= 6.78D-03 BMatP= 3.35D-01
 IDIUse=3 WtCom= 9.65D-01 WtEn= 3.47D-02
 Coeff-Com: -0.117D+00 0.203D+00 0.915D+00
 Coeff-En:   0.000D+00 0.000D+00 0.100D+01
 Coeff:     -0.113D+00 0.196D+00 0.918D+00
 Gap=     0.318 Goal=   None    Shift=    0.000
 RMSDP=3.20D-04 MaxDP=1.96D-02 DE=-4.36D-01 OVMax= 2.69D-02

 Cycle   4  Pass 0  IDiag  1:
 RMSU=  2.88D-04    CP:  9.22D-01  1.93D+00  9.99D-01
 E= -957.695640343177     Delta-E=       -0.004567798958 Rises=F Damp=F
 DIIS: error= 2.19D-03 at cycle   4 NSaved=   4.
 NSaved= 4 IEnMin= 4 EnMin= -957.695640343177     IErMin= 4 ErrMin= 2.19D-03
 ErrMax= 2.19D-03  0.00D+00 EMaxC= 1.00D-01 BMatC= 1.90D-03 BMatP= 6.78D-03
 IDIUse=3 WtCom= 9.78D-01 WtEn= 2.19D-02
 Coeff-Com: -0.136D-01 0.522D-02 0.364D+00 0.644D+00
 Coeff-En:   0.000D+00 0.000D+00 0.000D+00 0.100D+01
 Coeff:     -0.133D-01 0.510D-02 0.356D+00 0.652D+00
 Gap=     0.320 Goal=   None    Shift=    0.000
 RMSDP=1.28D-04 MaxDP=5.98D-03 DE=-4.57D-03 OVMax= 1.05D-02

 Cycle   5  Pass 0  IDiag  1:
 RMSU=  8.92D-05    CP:  9.21D-01  1.94D+00  1.03D+00  7.19D-01
 E= -957.697308357089     Delta-E=       -0.001668013912 Rises=F Damp=F
 DIIS: error= 2.80D-04 at cycle   5 NSaved=   5.
 NSaved= 5 IEnMin= 5 EnMin= -957.697308357089     IErMin= 5 ErrMin= 2.80D-04
 ErrMax= 2.80D-04  0.00D+00 EMaxC= 1.00D-01 BMatC= 7.11D-05 BMatP= 1.90D-03
 IDIUse=3 WtCom= 9.97D-01 WtEn= 2.80D-03
 Coeff-Com:  0.662D-02-0.128D-01-0.342D-01 0.715D-01 0.969D+00
 Coeff-En:   0.000D+00 0.000D+00 0.000D+00 0.000D+00 0.100D+01
 Coeff:      0.660D-02-0.128D-01-0.341D-01 0.713D-01 0.969D+00
 Gap=     0.320 Goal=   None    Shift=    0.000
 RMSDP=4.87D-05 MaxDP=1.14D-03 DE=-1.67D-03 OVMax= 3.87D-03

 Cycle   6  Pass 0  IDiag  1:
 RMSU=  3.15D-05    CP:  9.21D-01  1.94D+00  1.05D+00  8.25D-01  1.03D+00
 E= -957.697429796732     Delta-E=       -0.000121439643 Rises=F Damp=F
 DIIS: error= 2.60D-04 at cycle   6 NSaved=   6.
 NSaved= 6 IEnMin= 6 EnMin= -957.697429796732     IErMin= 6 ErrMin= 2.60D-04
 ErrMax= 2.60D-04  0.00D+00 EMaxC= 1.00D-01 BMatC= 1.56D-05 BMatP= 7.11D-05
 IDIUse=3 WtCom= 9.97D-01 WtEn= 2.60D-03
 Coeff-Com:  0.419D-02-0.544D-02-0.586D-01-0.666D-01 0.301D+00 0.825D+00
 Coeff-En:   0.000D+00 0.000D+00 0.000D+00 0.000D+00 0.000D+00 0.100D+01
 Coeff:      0.418D-02-0.543D-02-0.584D-01-0.664D-01 0.300D+00 0.826D+00
 Gap=     0.321 Goal=   None    Shift=    0.000
 RMSDP=1.96D-05 MaxDP=6.41D-04 DE=-1.21D-04 OVMax= 2.77D-03

 Cycle   7  Pass 0  IDiag  1:
 RMSU=  1.17D-05    CP:  9.21D-01  1.95D+00  1.05D+00  8.28D-01  1.19D+00
                    CP:  9.58D-01
 E= -957.697461685724     Delta-E=       -0.000031888992 Rises=F Damp=F
 DIIS: error= 5.50D-05 at cycle   7 NSaved=   7.
 NSaved= 7 IEnMin= 7 EnMin= -957.697461685724     IErMin= 7 ErrMin= 5.50D-05
 ErrMax= 5.50D-05  0.00D+00 EMaxC= 1.00D-01 BMatC= 2.56D-06 BMatP= 1.56D-05
 IDIUse=1 WtCom= 1.00D+00 WtEn= 0.00D+00
 Coeff-Com: -0.180D-03 0.723D-03-0.334D-02-0.234D-01-0.103D+00 0.159D+00
 Coeff-Com:  0.970D+00
 Coeff:     -0.180D-03 0.723D-03-0.334D-02-0.234D-01-0.103D+00 0.159D+00
 Coeff:      0.970D+00
 Gap=     0.321 Goal=   None    Shift=    0.000
 RMSDP=9.62D-06 MaxDP=3.41D-04 DE=-3.19D-05 OVMax= 1.04D-03

 Initial convergence to 1.0D-05 achieved.  Increase integral accuracy.
 Cycle   8  Pass 1  IDiag  1:
 E= -957.697486938501     Delta-E=       -0.000025252777 Rises=F Damp=F
 DIIS: error= 9.47D-05 at cycle   1 NSaved=   1.
 NSaved= 1 IEnMin= 1 EnMin= -957.697486938501     IErMin= 1 ErrMin= 9.47D-05
 ErrMax= 9.47D-05  0.00D+00 EMaxC= 1.00D-01 BMatC= 1.59D-06 BMatP= 1.59D-06
 IDIUse=1 WtCom= 1.00D+00 WtEn= 0.00D+00
 Coeff-Com:  0.100D+01
 Coeff:      0.100D+01
 Gap=     0.321 Goal=   None    Shift=    0.000
 RMSDP=9.62D-06 MaxDP=3.41D-04 DE=-2.53D-05 OVMax= 7.52D-04

 Cycle   9  Pass 1  IDiag  1:
 RMSU=  3.47D-05    CP:  1.00D+00
 E= -957.697489616936     Delta-E=       -0.000002678435 Rises=F Damp=F
 DIIS: error= 2.75D-05 at cycle   2 NSaved=   2.
 NSaved= 2 IEnMin= 2 EnMin= -957.697489616936     IErMin= 2 ErrMin= 2.75D-05
 ErrMax= 2.75D-05  0.00D+00 EMaxC= 1.00D-01 BMatC= 2.44D-07 BMatP= 1.59D-06
 IDIUse=1 WtCom= 1.00D+00 WtEn= 0.00D+00
 Coeff-Com: -0.152D-01 0.102D+01
 Coeff:     -0.152D-01 0.102D+01
 Gap=     0.321 Goal=   None    Shift=    0.000
 RMSDP=3.40D-06 MaxDP=1.11D-04 DE=-2.68D-06 OVMax= 3.77D-04

 Cycle  10  Pass 1  IDiag  1:
 RMSU=  2.90D-06    CP:  1.00D+00  1.05D+00
 E= -957.697490551737     Delta-E=       -0.000000934801 Rises=F Damp=F
 DIIS: error= 2.92D-05 at cycle   3 NSaved=   3.
 NSaved= 3 IEnMin= 3 EnMin= -957.697490551737     IErMin= 2 ErrMin= 2.75D-05
 ErrMax= 2.92D-05  0.00D+00 EMaxC= 1.00D-01 BMatC= 1.11D-07 BMatP= 2.44D-07
 IDIUse=1 WtCom= 1.00D+00 WtEn= 0.00D+00
 Coeff-Com: -0.961D-01 0.151D+00 0.945D+00
 Coeff:     -0.961D-01 0.151D+00 0.945D+00
 Gap=     0.321 Goal=   None    Shift=    0.000
 RMSDP=2.07D-06 MaxDP=8.92D-05 DE=-9.35D-07 OVMax= 4.42D-04

 Cycle  11  Pass 1  IDiag  1:
 RMSU=  1.61D-06    CP:  1.00D+00  1.07D+00  1.42D+00
 E= -957.697491033617     Delta-E=       -0.000000481880 Rises=F Damp=F
 DIIS: error= 1.15D-05 at cycle   4 NSaved=   4.
 NSaved= 4 IEnMin= 4 EnMin= -957.697491033617     IErMin= 4 ErrMin= 1.15D-05
 ErrMax= 1.15D-05  0.00D+00 EMaxC= 1.00D-01 BMatC= 5.48D-08 BMatP= 1.11D-07
 IDIUse=1 WtCom= 1.00D+00 WtEn= 0.00D+00
 Coeff-Com:  0.101D-01-0.710D+00 0.823D-01 0.162D+01
 Coeff:      0.101D-01-0.710D+00 0.823D-01 0.162D+01
 Gap=     0.321 Goal=   None    Shift=    0.000
 RMSDP=3.39D-06 MaxDP=1.36D-04 DE=-4.82D-07 OVMax= 5.65D-04

 Cycle  12  Pass 1  IDiag  1:
 RMSU=  7.30D-07    CP:  1.00D+00  1.07D+00  2.48D+00  1.73D+00
 E= -957.697491422583     Delta-E=       -0.000000388966 Rises=F Damp=F
 DIIS: error= 5.37D-06 at cycle   5 NSaved=   5.
 NSaved= 5 IEnMin= 5 EnMin= -957.697491422583     IErMin= 5 ErrMin= 5.37D-06
 ErrMax= 5.37D-06  0.00D+00 EMaxC= 1.00D-01 BMatC= 6.19D-09 BMatP= 5.48D-08
 IDIUse=1 WtCom= 1.00D+00 WtEn= 0.00D+00
 Coeff-Com:  0.155D-01-0.272D+00-0.780D-01 0.582D+00 0.753D+00
 Coeff:      0.155D-01-0.272D+00-0.780D-01 0.582D+00 0.753D+00
 Gap=     0.321 Goal=   None    Shift=    0.000
 RMSDP=6.06D-07 MaxDP=2.33D-05 DE=-3.89D-07 OVMax= 1.31D-04

 Cycle  13  Pass 1  IDiag  1:
 RMSU=  2.78D-07    CP:  1.00D+00  1.07D+00  2.63D+00  1.94D+00  1.01D+00
 E= -957.697491445010     Delta-E=       -0.000000022427 Rises=F Damp=F
 DIIS: error= 1.44D-06 at cycle   6 NSaved=   6.
 NSaved= 6 IEnMin= 6 EnMin= -957.697491445010     IErMin= 6 ErrMin= 1.44D-06
 ErrMax= 1.44D-06  0.00D+00 EMaxC= 1.00D-01 BMatC= 1.36D-09 BMatP= 6.19D-09
 IDIUse=1 WtCom= 1.00D+00 WtEn= 0.00D+00
 Coeff-Com: -0.720D-02 0.253D+00-0.259D-02-0.558D+00-0.146D+00 0.146D+01
 Coeff:     -0.720D-02 0.253D+00-0.259D-02-0.558D+00-0.146D+00 0.146D+01
 Gap=     0.321 Goal=   None    Shift=    0.000
 RMSDP=3.86D-07 MaxDP=1.19D-05 DE=-2.24D-08 OVMax= 5.85D-05

 Cycle  14  Pass 1  IDiag  1:
 RMSU=  1.75D-07    CP:  1.00D+00  1.07D+00  2.69D+00  2.02D+00  1.30D+00
                    CP:  1.57D+00
 E= -957.697491452422     Delta-E=       -0.000000007411 Rises=F Damp=F
 DIIS: error= 9.13D-07 at cycle   7 NSaved=   7.
 NSaved= 7 IEnMin= 7 EnMin= -957.697491452422     IErMin= 7 ErrMin= 9.13D-07
 ErrMax= 9.13D-07  0.00D+00 EMaxC= 1.00D-01 BMatC= 2.56D-10 BMatP= 1.36D-09
 IDIUse=1 WtCom= 1.00D+00 WtEn= 0.00D+00
 Coeff-Com: -0.606D-02 0.148D+00 0.135D-01-0.328D+00-0.208D+00 0.475D+00
 Coeff-Com:  0.906D+00
 Coeff:     -0.606D-02 0.148D+00 0.135D-01-0.328D+00-0.208D+00 0.475D+00
 Coeff:      0.906D+00
 Gap=     0.321 Goal=   None    Shift=    0.000
 RMSDP=1.62D-07 MaxDP=6.76D-06 DE=-7.41D-09 OVMax= 2.69D-05

 Cycle  15  Pass 1  IDiag  1:
 RMSU=  5.21D-08    CP:  1.00D+00  1.07D+00  2.72D+00  2.05D+00  1.39D+00
                    CP:  1.85D+00  1.33D+00
 E= -957.697491453532     Delta-E=       -0.000000001110 Rises=F Damp=F
 DIIS: error= 2.72D-07 at cycle   8 NSaved=   8.
 NSaved= 8 IEnMin= 8 EnMin= -957.697491453532     IErMin= 8 ErrMin= 2.72D-07
 ErrMax= 2.72D-07  0.00D+00 EMaxC= 1.00D-01 BMatC= 2.81D-11 BMatP= 2.56D-10
 IDIUse=1 WtCom= 1.00D+00 WtEn= 0.00D+00
 Coeff-Com:  0.304D-03-0.178D-01 0.282D-02 0.409D-01-0.175D-02-0.167D+00
 Coeff-Com:  0.125D+00 0.102D+01
 Coeff:      0.304D-03-0.178D-01 0.282D-02 0.409D-01-0.175D-02-0.167D+00
 Coeff:      0.125D+00 0.102D+01
 Gap=     0.321 Goal=   None    Shift=    0.000
 RMSDP=4.34D-08 MaxDP=1.63D-06 DE=-1.11D-09 OVMax= 4.93D-06

 Cycle  16  Pass 1  IDiag  1:
 RMSU=  1.80D-08    CP:  1.00D+00  1.07D+00  2.72D+00  2.05D+00  1.40D+00
                    CP:  1.90D+00  1.51D+00  1.18D+00
 E= -957.697491453635     Delta-E=       -0.000000000103 Rises=F Damp=F
 DIIS: error= 7.05D-08 at cycle   9 NSaved=   9.
 NSaved= 9 IEnMin= 9 EnMin= -957.697491453635     IErMin= 9 ErrMin= 7.05D-08
 ErrMax= 7.05D-08  0.00D+00 EMaxC= 1.00D-01 BMatC= 3.01D-12 BMatP= 2.81D-11
 IDIUse=1 WtCom= 1.00D+00 WtEn= 0.00D+00
 Coeff-Com:  0.866D-03-0.230D-01-0.125D-02 0.502D-01 0.280D-01-0.924D-01
 Coeff-Com: -0.817D-01 0.153D+00 0.966D+00
 Coeff:      0.866D-03-0.230D-01-0.125D-02 0.502D-01 0.280D-01-0.924D-01
 Coeff:     -0.817D-01 0.153D+00 0.966D+00
 Gap=     0.321 Goal=   None    Shift=    0.000
 RMSDP=1.26D-08 MaxDP=4.60D-07 DE=-1.03D-10 OVMax= 1.73D-06

 Cycle  17  Pass 1  IDiag  1:
 RMSU=  7.33D-09    CP:  1.00D+00  1.07D+00  2.72D+00  2.05D+00  1.40D+00
                    CP:  1.91D+00  1.54D+00  1.27D+00  1.32D+00
 E= -957.697491453639     Delta-E=       -0.000000000005 Rises=F Damp=F
 DIIS: error= 4.10D-08 at cycle  10 NSaved=  10.
 NSaved=10 IEnMin=10 EnMin= -957.697491453639     IErMin=10 ErrMin= 4.10D-08
 ErrMax= 4.10D-08  0.00D+00 EMaxC= 1.00D-01 BMatC= 5.47D-13 BMatP= 3.01D-12
 IDIUse=1 WtCom= 1.00D+00 WtEn= 0.00D+00
 Coeff-Com: -0.681D-04 0.297D-02 0.135D-03-0.724D-02-0.132D-02 0.230D-01
 Coeff-Com: -0.897D-02-0.141D+00-0.492D-01 0.118D+01
 Coeff:     -0.681D-04 0.297D-02 0.135D-03-0.724D-02-0.132D-02 0.230D-01
 Coeff:     -0.897D-02-0.141D+00-0.492D-01 0.118D+01
 Gap=     0.321 Goal=   None    Shift=    0.000
 RMSDP=7.17D-09 MaxDP=2.09D-07 DE=-4.55D-12 OVMax= 1.07D-06

 SCF Done:  E(RHF) =  -957.697491454     A.U. after   17 cycles
            NFock= 17  Conv=0.72D-08     -V/T= 2.0021
 KE= 9.557110517476D+02 PE=-6.246577008957D+03 EE= 2.327617411253D+03
 Leave Link  502 at Sun Jun  2 12:50:32 2024, MaxMem=  1073741824 cpu:             312.1 elap:              39.0
 (Enter /public/home/zyli/senxu/soft/g16/l601.exe)
 Copying SCF densities to generalized density rwf, IOpCl= 0 IROHF=0.

 **********************************************************************

            Population analysis using the SCF Density.

 **********************************************************************

 Alpha  occ. eigenvalues --  -20.59087 -20.52450 -11.36114 -11.27854 -11.27502
 Alpha  occ. eigenvalues --  -11.25837 -11.25003 -11.24456 -11.24045 -11.23831
 Alpha  occ. eigenvalues --  -11.23827 -11.23773 -11.23608 -11.23386 -11.23342
 Alpha  occ. eigenvalues --  -11.23150 -11.22995 -11.22875 -11.22732 -11.22706
 Alpha  occ. eigenvalues --  -11.22703 -11.22633 -11.21962  -1.43144  -1.32834
 Alpha  occ. eigenvalues --   -1.18657  -1.13969  -1.08989  -1.08603  -1.05857
 Alpha  occ. eigenvalues --   -1.01335  -1.00154  -0.98446  -0.97859  -0.97450
 Alpha  occ. eigenvalues --   -0.92248  -0.88820  -0.87151  -0.83058  -0.80667
 Alpha  occ. eigenvalues --   -0.80269  -0.76312  -0.74242  -0.72894  -0.70869
 Alpha  occ. eigenvalues --   -0.68715  -0.66481  -0.65425  -0.64849  -0.63973
 Alpha  occ. eigenvalues --   -0.63401  -0.61866  -0.60875  -0.60441  -0.59609
 Alpha  occ. eigenvalues --   -0.58883  -0.58045  -0.57728  -0.57090  -0.55469
 Alpha  occ. eigenvalues --   -0.54692  -0.54224  -0.53386  -0.53265  -0.52870
 Alpha  occ. eigenvalues --   -0.52403  -0.51933  -0.51127  -0.50764  -0.49509
 Alpha  occ. eigenvalues --   -0.49229  -0.48295  -0.46796  -0.45713  -0.43945
 Alpha  occ. eigenvalues --   -0.42394  -0.41790  -0.37311  -0.33184  -0.30764
 Alpha  occ. eigenvalues --   -0.29660  -0.25753
 Alpha virt. eigenvalues --    0.06351   0.12695   0.13690   0.15472   0.19207
 Alpha virt. eigenvalues --    0.21864   0.22743   0.23719   0.25188   0.25907
 Alpha virt. eigenvalues --    0.26308   0.27757   0.28005   0.29104   0.29446
 Alpha virt. eigenvalues --    0.30495   0.30951   0.31624   0.31994   0.32238
 Alpha virt. eigenvalues --    0.32816   0.33237   0.33453   0.33483   0.33889
 Alpha virt. eigenvalues --    0.34286   0.34699   0.37171   0.37619   0.37701
 Alpha virt. eigenvalues --    0.38799   0.40382   0.41654   0.42268   0.43783
 Alpha virt. eigenvalues --    0.44127   0.45640   0.47969   0.48313   0.49135
 Alpha virt. eigenvalues --    0.50743   0.51008   0.52176   0.53762   0.53871
 Alpha virt. eigenvalues --    0.54753   0.54973   0.55934   0.58849   0.62422
 Alpha virt. eigenvalues --    0.66047   0.67038   0.69325   0.70534   0.71450
 Alpha virt. eigenvalues --    0.72116   0.73563   0.73896   0.74846   0.75920
 Alpha virt. eigenvalues --    0.76859   0.77037   0.77304   0.77914   0.78319
 Alpha virt. eigenvalues --    0.79749   0.79966   0.80377   0.80595   0.81761
 Alpha virt. eigenvalues --    0.82332   0.82704   0.83903   0.84271   0.84759
 Alpha virt. eigenvalues --    0.85397   0.85439   0.85926   0.86314   0.86350
 Alpha virt. eigenvalues --    0.88254   0.89552   0.90922   0.92422   0.93440
 Alpha virt. eigenvalues --    0.93702   0.94547   0.97153   0.97833   0.98365
 Alpha virt. eigenvalues --    1.00259   1.00662   1.02296   1.03281   1.04523
 Alpha virt. eigenvalues --    1.04923   1.07468   1.08134   1.09336   1.10034
 Alpha virt. eigenvalues --    1.10320   1.10627   1.11066   1.11352   1.11639
 Alpha virt. eigenvalues --    1.12191   1.12895   1.13460   1.13596   1.14792
 Alpha virt. eigenvalues --    1.15597   1.15916   1.16393   1.17291   1.17563
 Alpha virt. eigenvalues --    1.18500   1.19168   1.20329   1.20427   1.20844
 Alpha virt. eigenvalues --    1.22100   1.22375   1.23442   1.24425   1.25002
 Alpha virt. eigenvalues --    1.25737   1.26261   1.27078   1.27659   1.28795
 Alpha virt. eigenvalues --    1.29293   1.30469   1.31462   1.31886   1.32441
 Alpha virt. eigenvalues --    1.32613   1.33605   1.34370   1.35878   1.37283
 Alpha virt. eigenvalues --    1.38855   1.39137   1.40744   1.41457   1.44017
 Alpha virt. eigenvalues --    1.45280   1.46430   1.46735   1.48270   1.49799
 Alpha virt. eigenvalues --    1.51172   1.53009   1.55581   1.56693   1.57818
 Alpha virt. eigenvalues --    1.58443   1.63403   1.63683   1.66832   1.68396
 Alpha virt. eigenvalues --    1.68776   1.71042   1.71420   1.71974   1.72633
 Alpha virt. eigenvalues --    1.73685   1.74056   1.75141   1.76394   1.77903
 Alpha virt. eigenvalues --    1.78930   1.80067   1.80942   1.82540   1.84514
 Alpha virt. eigenvalues --    1.85291   1.87969   1.92690   1.95243   1.96718
 Alpha virt. eigenvalues --    1.98664   2.00962   2.03091   2.04365   2.07079
 Alpha virt. eigenvalues --    2.09096   2.09863   2.10701   2.11482   2.11649
 Alpha virt. eigenvalues --    2.14691   2.15187   2.15960   2.16700   2.17966
 Alpha virt. eigenvalues --    2.19139   2.20027   2.21226   2.23453   2.23666
 Alpha virt. eigenvalues --    2.25526   2.26396   2.27638   2.28102   2.30863
 Alpha virt. eigenvalues --    2.32184   2.33395   2.33848   2.34868   2.35082
 Alpha virt. eigenvalues --    2.37176   2.38308   2.38919   2.39502   2.40761
 Alpha virt. eigenvalues --    2.42124   2.43006   2.44550   2.45078   2.46804
 Alpha virt. eigenvalues --    2.47792   2.47939   2.49307   2.51136   2.52088
 Alpha virt. eigenvalues --    2.52369   2.54515   2.54569   2.55994   2.56765
 Alpha virt. eigenvalues --    2.57829   2.58404   2.61018   2.62908   2.63231
 Alpha virt. eigenvalues --    2.64083   2.64644   2.65301   2.65893   2.66096
 Alpha virt. eigenvalues --    2.68749   2.71135   2.72052   2.73705   2.75079
 Alpha virt. eigenvalues --    2.76196   2.77123   2.80936   2.82193   2.84195
 Alpha virt. eigenvalues --    2.85576   2.85958   2.91050   2.93102   2.96738
 Alpha virt. eigenvalues --    2.97945   2.98841   2.99876   3.00281   3.01240
 Alpha virt. eigenvalues --    3.01535   3.05437   3.05646   3.08638   3.11069
 Alpha virt. eigenvalues --    3.11523   3.11904   3.12685   3.16517   3.19975
 Alpha virt. eigenvalues --    3.21912   3.23698   3.24444   3.29293   3.30582
 Alpha virt. eigenvalues --    3.34423   3.35615   3.41646   3.50371   3.51034
 Alpha virt. eigenvalues --    3.55977   3.64259   3.82258   3.83803   4.45557
 Alpha virt. eigenvalues --    4.52511   4.53303   4.56907   4.57327   4.58006
 Alpha virt. eigenvalues --    4.61738   4.66444   4.68502   4.69334   4.69822
 Alpha virt. eigenvalues --    4.72362   4.78518   4.82246   4.86146   4.88373
 Alpha virt. eigenvalues --    4.92587   4.96709   4.99922   5.08728   5.19584
 Alpha virt. eigenvalues --    5.26494   5.35736
          Condensed to atoms (all electrons):
               1          2          3          4          5          6
     1  C    4.914502   0.569741  -0.040289  -0.027764  -0.044893   0.514303
     2  C    0.569741   4.938087   0.516409  -0.034719  -0.039775  -0.044758
     3  C   -0.040289   0.516409   4.773118   0.566781  -0.033652  -0.027513
     4  C   -0.027764  -0.034719   0.566781   4.763208   0.518474  -0.039299
     5  C   -0.044893  -0.039775  -0.033652   0.518474   4.957841   0.566418
     6  C    0.514303  -0.044758  -0.027513  -0.039299   0.566418   4.900432
     7  C    0.003768  -0.051187   0.467380  -0.044186   0.005258  -0.000417
     8  C   -0.000286   0.004696  -0.048798   0.436633  -0.051157   0.003465
     9  C    0.000014   0.000197  -0.020569  -0.051426   0.002618  -0.000127
    10  C   -0.000133   0.002463  -0.054066  -0.018956   0.000383   0.000012
    11  C    0.000002  -0.000079   0.002487   0.000234   0.000005  -0.000000
    12  H    0.000000  -0.000001  -0.000055   0.000000   0.000000   0.000000
    13  C    0.000000   0.000002  -0.000133   0.000019  -0.000000  -0.000000
    14  C   -0.000000  -0.000000   0.000013  -0.000126   0.000002   0.000000
    15  C   -0.000000   0.000006   0.000347   0.002234  -0.000083   0.000002
    16  H    0.381594  -0.028265   0.001302   0.000468   0.002198  -0.028937
    17  H   -0.028720   0.380466  -0.029975   0.002144   0.000190   0.002443
    18  H    0.002437   0.000192   0.002169  -0.029928   0.381913  -0.029553
    19  H   -0.028983   0.002247   0.000471   0.001374  -0.028486   0.381034
    20  H    0.000000  -0.000000   0.000002  -0.000000  -0.000000  -0.000000
    21  H   -0.000000  -0.000000  -0.000000   0.000002  -0.000000   0.000000
    22  H    0.000000  -0.000000  -0.000007  -0.000013   0.000001   0.000000
    23  C    0.000149   0.000152  -0.018452  -0.033402  -0.004045  -0.000069
    24  C   -0.000093  -0.002566  -0.021247  -0.021572   0.000032   0.000095
    25  C    0.000001  -0.000001   0.000373   0.000409   0.000002  -0.000001
    26  O   -0.000000   0.000000  -0.000055   0.000034   0.000000  -0.000000
    27  C   -0.000077  -0.009179  -0.051444   0.002831  -0.000105   0.000004
    28  H    0.000074   0.000075  -0.005506  -0.000078  -0.000003  -0.000006
    29  H   -0.000031  -0.000124  -0.001314  -0.000140  -0.000004   0.000001
    30  H    0.000004   0.000246   0.003532  -0.000009   0.000001   0.000000
    31  C   -0.000001  -0.000096   0.002870  -0.055828  -0.008367   0.000044
    32  H    0.000000   0.000001   0.000004   0.004030   0.000174   0.000003
    33  H    0.000000  -0.000004  -0.000164  -0.001761   0.000465  -0.000033
    34  H   -0.000008  -0.000002  -0.000067  -0.005213  -0.000034   0.000091
    35  O   -0.000000  -0.000002   0.000056  -0.000001  -0.000000   0.000000
    36  C    0.000000   0.000000   0.000000   0.000000  -0.000000  -0.000000
    37  H    0.000000   0.000000   0.000000  -0.000000  -0.000000   0.000000
    38  H    0.000000   0.000000  -0.000001   0.000000   0.000000  -0.000000
    39  H    0.000000  -0.000000   0.000000   0.000000  -0.000000  -0.000000
    40  H    0.000064   0.001166  -0.004297   0.000716  -0.000085  -0.000027
    41  H   -0.000001   0.000000   0.000278   0.001613   0.000015   0.000003
    42  C   -0.000106  -0.000029   0.000409  -0.010346  -0.000687  -0.000159
    43  H   -0.000005   0.000005   0.000125  -0.000302   0.000571  -0.000022
    44  H    0.000054   0.000301   0.000697  -0.000391   0.000942   0.000895
    45  H    0.000001  -0.000004  -0.000069   0.000439   0.000006  -0.000006
               7          8          9         10         11         12
     1  C    0.003768  -0.000286   0.000014  -0.000133   0.000002   0.000000
     2  C   -0.051187   0.004696   0.000197   0.002463  -0.000079  -0.000001
     3  C    0.467380  -0.048798  -0.020569  -0.054066   0.002487  -0.000055
     4  C   -0.044186   0.436633  -0.051426  -0.018956   0.000234   0.000000
     5  C    0.005258  -0.051157   0.002618   0.000383   0.000005   0.000000
     6  C   -0.000417   0.003465  -0.000127   0.000012  -0.000000   0.000000
     7  C    4.985211  -0.033990  -0.046621   0.460116  -0.053094  -0.004518
     8  C   -0.033990   5.110704   0.450027  -0.046096   0.005105  -0.000104
     9  C   -0.046621   0.450027   4.730963   0.571326  -0.032407   0.002122
    10  C    0.460116  -0.046096   0.571326   4.772455   0.514266  -0.031113
    11  C   -0.053094   0.005105  -0.032407   0.514266   4.927889   0.379965
    12  H   -0.004518  -0.000104   0.002122  -0.031113   0.379965   0.477670
    13  C    0.003725  -0.000349  -0.028398  -0.037103   0.571077  -0.028392
    14  C   -0.000361   0.003658  -0.036408  -0.028926  -0.042261   0.002415
    15  C    0.005027  -0.051751   0.522459  -0.031737  -0.040552   0.000227
    16  H   -0.000103   0.000007  -0.000000   0.000002  -0.000000   0.000000
    17  H   -0.004432  -0.000096  -0.000002  -0.000018  -0.000002  -0.000001
    18  H   -0.000093  -0.004136   0.000001  -0.000003  -0.000000  -0.000000
    19  H    0.000007  -0.000097   0.000002  -0.000000  -0.000000  -0.000000
    20  H   -0.000103   0.000008   0.000511   0.001297  -0.028522  -0.001321
    21  H    0.000007  -0.000101   0.001341   0.000515   0.002227  -0.000115
    22  H   -0.000094  -0.005010  -0.030062   0.002202   0.000202   0.000010
    23  C   -0.017204   0.177901  -0.035083  -0.013731   0.000072  -0.000007
    24  C    0.116761  -0.019146  -0.026874  -0.021646  -0.002061   0.000083
    25  C   -0.005040  -0.000366  -0.002047  -0.007046   0.000498   0.000000
    26  O   -0.003319  -0.001020   0.002634   0.001086   0.001418   0.000028
    27  C    0.344901   0.000318   0.002818  -0.052508  -0.008644   0.000665
    28  H   -0.033702   0.000014  -0.000007   0.003633   0.000207   0.000123
    29  H   -0.037506   0.000004  -0.000151  -0.002188   0.000211  -0.000157
    30  H   -0.031887   0.000018  -0.000049  -0.004733   0.000459  -0.000922
    31  C    0.000416   0.348324  -0.054436   0.002733  -0.000094   0.000001
    32  H    0.000007  -0.034664  -0.006090  -0.000141   0.000001   0.000000
    33  H    0.000015  -0.038801  -0.001749  -0.000110  -0.000010  -0.000000
    34  H    0.000000  -0.033821   0.003898  -0.000010   0.000001  -0.000000
    35  O    0.000341  -0.000012   0.000023  -0.001203   0.000144  -0.000085
    36  C   -0.000092   0.000001   0.000001  -0.000040  -0.000158   0.000030
    37  H    0.000007   0.000000  -0.000000  -0.000000   0.000000   0.000001
    38  H   -0.000054  -0.000000  -0.000004   0.000087   0.000374   0.000099
    39  H   -0.000001   0.000000   0.000000  -0.000002   0.000005  -0.000002
    40  H   -0.009332   0.000847   0.000445   0.000977  -0.000010  -0.000001
    41  H    0.001216  -0.023003  -0.005784   0.000381  -0.000074   0.000001
    42  C    0.000463  -0.020473   0.000939   0.000365   0.000002   0.000000
    43  H   -0.000002  -0.002895   0.000148   0.000012   0.000000  -0.000000
    44  H    0.000082  -0.004069  -0.000098   0.000034   0.000000   0.000000
    45  H   -0.000042   0.001855  -0.000003  -0.000021  -0.000000  -0.000000
              13         14         15         16         17         18
     1  C    0.000000  -0.000000  -0.000000   0.381594  -0.028720   0.002437
     2  C    0.000002  -0.000000   0.000006  -0.028265   0.380466   0.000192
     3  C   -0.000133   0.000013   0.000347   0.001302  -0.029975   0.002169
     4  C    0.000019  -0.000126   0.002234   0.000468   0.002144  -0.029928
     5  C   -0.000000   0.000002  -0.000083   0.002198   0.000190   0.381913
     6  C   -0.000000   0.000000   0.000002  -0.028937   0.002443  -0.029553
     7  C    0.003725  -0.000361   0.005027  -0.000103  -0.004432  -0.000093
     8  C   -0.000349   0.003658  -0.051751   0.000007  -0.000096  -0.004136
     9  C   -0.028398  -0.036408   0.522459  -0.000000  -0.000002   0.000001
    10  C   -0.037103  -0.028926  -0.031737   0.000002  -0.000018  -0.000003
    11  C    0.571077  -0.042261  -0.040552  -0.000000  -0.000002  -0.000000
    12  H   -0.028392   0.002415   0.000227   0.000000  -0.000001  -0.000000
    13  C    4.894047   0.515273  -0.042626   0.000000   0.000000   0.000000
    14  C    0.515273   4.889121   0.568411  -0.000000   0.000000  -0.000000
    15  C   -0.042626   0.568411   4.934071  -0.000000  -0.000000  -0.000002
    16  H    0.000000  -0.000000  -0.000000   0.472426  -0.001315  -0.000112
    17  H    0.000000   0.000000  -0.000000  -0.001315   0.470689   0.000010
    18  H    0.000000  -0.000000  -0.000002  -0.000112   0.000010   0.473255
    19  H   -0.000000   0.000000  -0.000000  -0.001127  -0.000112  -0.001318
    20  H    0.380905  -0.028818   0.002181  -0.000000  -0.000000  -0.000000
    21  H   -0.029082   0.380599  -0.028361   0.000000  -0.000000  -0.000000
    22  H    0.002456  -0.029590   0.381541  -0.000000  -0.000000  -0.000000
    23  C    0.000077  -0.000084  -0.002880   0.000000  -0.000009   0.000106
    24  C   -0.000103   0.000141  -0.000035   0.000000   0.000049  -0.000013
    25  C    0.000037   0.000054  -0.000081  -0.000000   0.000001   0.000000
    26  O   -0.000116  -0.000253   0.000386  -0.000000  -0.000000   0.000000
    27  C   -0.000068   0.000005  -0.000098  -0.000005   0.000262   0.000001
    28  H    0.000004   0.000000   0.000001   0.000001  -0.000901   0.000000
    29  H   -0.000026   0.000000  -0.000002  -0.000000  -0.000144  -0.000000
    30  H    0.000077  -0.000007  -0.000003  -0.000000   0.000125  -0.000000
    31  C    0.000004  -0.000125  -0.008992   0.000000   0.000001  -0.000441
    32  H   -0.000007   0.000088   0.000134  -0.000000  -0.000000   0.000098
    33  H    0.000000  -0.000038  -0.000013   0.000000  -0.000000   0.000194
    34  H    0.000000   0.000004   0.000301   0.000000   0.000000  -0.001021
    35  O    0.000006  -0.000000   0.000002   0.000000  -0.000001  -0.000000
    36  C   -0.000021   0.000001   0.000000  -0.000000   0.000000   0.000000
    37  H   -0.000000   0.000000  -0.000000  -0.000000   0.000000  -0.000000
    38  H    0.000070   0.000000  -0.000002  -0.000000  -0.000000   0.000000
    39  H    0.000001  -0.000000   0.000000  -0.000000  -0.000000  -0.000000
    40  H    0.000001  -0.000001   0.000001   0.000000  -0.000033   0.000001
    41  H   -0.000022   0.000088   0.001508   0.000000   0.000000  -0.000001
    42  C   -0.000000   0.000001  -0.000001  -0.000001   0.000002  -0.000132
    43  H   -0.000000  -0.000000   0.000003  -0.000000  -0.000000  -0.000127
    44  H   -0.000000   0.000000   0.000001  -0.000000   0.000003   0.000001
    45  H    0.000000  -0.000000  -0.000002   0.000000  -0.000000   0.000002
              19         20         21         22         23         24
     1  C   -0.028983   0.000000  -0.000000   0.000000   0.000149  -0.000093
     2  C    0.002247  -0.000000  -0.000000  -0.000000   0.000152  -0.002566
     3  C    0.000471   0.000002  -0.000000  -0.000007  -0.018452  -0.021247
     4  C    0.001374  -0.000000   0.000002  -0.000013  -0.033402  -0.021572
     5  C   -0.028486  -0.000000  -0.000000   0.000001  -0.004045   0.000032
     6  C    0.381034  -0.000000   0.000000   0.000000  -0.000069   0.000095
     7  C    0.000007  -0.000103   0.000007  -0.000094  -0.017204   0.116761
     8  C   -0.000097   0.000008  -0.000101  -0.005010   0.177901  -0.019146
     9  C    0.000002   0.000511   0.001341  -0.030062  -0.035083  -0.026874
    10  C   -0.000000   0.001297   0.000515   0.002202  -0.013731  -0.021646
    11  C   -0.000000  -0.028522   0.002227   0.000202   0.000072  -0.002061
    12  H   -0.000000  -0.001321  -0.000115   0.000010  -0.000007   0.000083
    13  C   -0.000000   0.380905  -0.029082   0.002456   0.000077  -0.000103
    14  C    0.000000  -0.028818   0.380599  -0.029590  -0.000084   0.000141
    15  C   -0.000000   0.002181  -0.028361   0.381541  -0.002880  -0.000035
    16  H   -0.001127  -0.000000   0.000000  -0.000000   0.000000   0.000000
    17  H   -0.000112  -0.000000  -0.000000  -0.000000  -0.000009   0.000049
    18  H   -0.001318  -0.000000  -0.000000  -0.000000   0.000106  -0.000013
    19  H    0.471475   0.000000  -0.000000  -0.000000   0.000001   0.000000
    20  H    0.000000   0.475668  -0.001133  -0.000115   0.000000   0.000000
    21  H   -0.000000  -0.001133   0.474064  -0.001334   0.000000   0.000000
    22  H   -0.000000  -0.000115  -0.001334   0.476668   0.000046  -0.000020
    23  C    0.000001   0.000000   0.000000   0.000046   5.128768   0.474742
    24  C    0.000000   0.000000   0.000000  -0.000020   0.474742   5.324884
    25  C   -0.000000   0.000000  -0.000000   0.000003  -0.040760   0.425012
    26  O   -0.000000  -0.000006  -0.000001   0.000009   0.000591  -0.081866
    27  C    0.000000  -0.000005   0.000000   0.000001   0.000467  -0.012150
    28  H    0.000000  -0.000000  -0.000000  -0.000000   0.000025  -0.002219
    29  H    0.000000  -0.000000   0.000000  -0.000000  -0.000012   0.001203
    30  H   -0.000000   0.000001   0.000000   0.000000   0.000041  -0.002932
    31  C   -0.000003   0.000000  -0.000005   0.000201  -0.018553   0.000891
    32  H   -0.000000   0.000000   0.000001  -0.001554  -0.003185   0.000090
    33  H   -0.000000   0.000000  -0.000000   0.000086   0.001741  -0.000022
    34  H    0.000002  -0.000000  -0.000000   0.000156  -0.002645   0.000004
    35  O    0.000000  -0.000000  -0.000000   0.000000   0.002311  -0.083525
    36  C    0.000000  -0.000000   0.000000  -0.000000  -0.000118   0.005021
    37  H    0.000000  -0.000000   0.000000  -0.000000  -0.000000   0.000058
    38  H   -0.000000   0.000001  -0.000000   0.000000  -0.000004  -0.000121
    39  H    0.000000   0.000000  -0.000000   0.000000   0.000026  -0.000082
    40  H   -0.000000  -0.000000   0.000000   0.000000  -0.037704   0.384705
    41  H   -0.000000  -0.000000   0.000000  -0.000049   0.396646  -0.041242
    42  C   -0.000002   0.000000  -0.000000  -0.000001   0.327283  -0.054176
    43  H   -0.000001  -0.000000  -0.000000  -0.000001  -0.041500   0.004378
    44  H    0.000001  -0.000000  -0.000000  -0.000000  -0.037165  -0.001424
    45  H    0.000000   0.000000   0.000000   0.000000  -0.035280  -0.006118
              25         26         27         28         29         30
     1  C    0.000001  -0.000000  -0.000077   0.000074  -0.000031   0.000004
     2  C   -0.000001   0.000000  -0.009179   0.000075  -0.000124   0.000246
     3  C    0.000373  -0.000055  -0.051444  -0.005506  -0.001314   0.003532
     4  C    0.000409   0.000034   0.002831  -0.000078  -0.000140  -0.000009
     5  C    0.000002   0.000000  -0.000105  -0.000003  -0.000004   0.000001
     6  C   -0.000001  -0.000000   0.000004  -0.000006   0.000001   0.000000
     7  C   -0.005040  -0.003319   0.344901  -0.033702  -0.037506  -0.031887
     8  C   -0.000366  -0.001020   0.000318   0.000014   0.000004   0.000018
     9  C   -0.002047   0.002634   0.002818  -0.000007  -0.000151  -0.000049
    10  C   -0.007046   0.001086  -0.052508   0.003633  -0.002188  -0.004733
    11  C    0.000498   0.001418  -0.008644   0.000207   0.000211   0.000459
    12  H    0.000000   0.000028   0.000665   0.000123  -0.000157  -0.000922
    13  C    0.000037  -0.000116  -0.000068   0.000004  -0.000026   0.000077
    14  C    0.000054  -0.000253   0.000005   0.000000   0.000000  -0.000007
    15  C   -0.000081   0.000386  -0.000098   0.000001  -0.000002  -0.000003
    16  H   -0.000000  -0.000000  -0.000005   0.000001  -0.000000  -0.000000
    17  H    0.000001  -0.000000   0.000262  -0.000901  -0.000144   0.000125
    18  H    0.000000   0.000000   0.000001   0.000000  -0.000000  -0.000000
    19  H   -0.000000  -0.000000   0.000000   0.000000   0.000000  -0.000000
    20  H    0.000000  -0.000006  -0.000005  -0.000000  -0.000000   0.000001
    21  H   -0.000000  -0.000001   0.000000  -0.000000   0.000000   0.000000
    22  H    0.000003   0.000009   0.000001  -0.000000  -0.000000   0.000000
    23  C   -0.040760   0.000591   0.000467   0.000025  -0.000012   0.000041
    24  C    0.425012  -0.081866  -0.012150  -0.002219   0.001203  -0.002932
    25  C    4.047436   0.558988  -0.002459  -0.000087   0.000051  -0.000524
    26  O    0.558988   8.203017   0.000052   0.000009  -0.000005  -0.000111
    27  C   -0.002459   0.000052   5.140239   0.394513   0.378402   0.392861
    28  H   -0.000087   0.000009   0.394513   0.508576  -0.028170  -0.024172
    29  H    0.000051  -0.000005   0.378402  -0.028170   0.536260  -0.026565
    30  H   -0.000524  -0.000111   0.392861  -0.024172  -0.026565   0.489391
    31  C   -0.000018  -0.000002   0.000003  -0.000000   0.000000  -0.000000
    32  H   -0.000006  -0.000013  -0.000000  -0.000000   0.000000  -0.000000
    33  H    0.000000   0.000000   0.000000   0.000000  -0.000000   0.000000
    34  H    0.000000   0.000000  -0.000000  -0.000000   0.000000  -0.000000
    35  O    0.252615  -0.081993  -0.002723   0.000169   0.000101   0.005396
    36  C   -0.029775   0.002470   0.000185   0.000007  -0.000010  -0.000382
    37  H    0.003804   0.000505   0.000008  -0.000002  -0.000000  -0.000091
    38  H   -0.004234   0.003594   0.000108   0.000001  -0.000003  -0.000272
    39  H   -0.004410   0.002660  -0.000002   0.000000   0.000000   0.000059
    40  H   -0.028043   0.002063  -0.000300   0.001264  -0.000046   0.000068
    41  H   -0.002099   0.007621  -0.000018  -0.000002   0.000001  -0.000005
    42  C    0.001823   0.000251  -0.000021  -0.000005   0.000000  -0.000001
    43  H   -0.000056  -0.000001   0.000000   0.000000  -0.000000   0.000000
    44  H    0.000108  -0.000004  -0.000010  -0.000004   0.000000  -0.000000
    45  H   -0.000139   0.000018   0.000001   0.000000  -0.000000   0.000000
              31         32         33         34         35         36
     1  C   -0.000001   0.000000   0.000000  -0.000008  -0.000000   0.000000
     2  C   -0.000096   0.000001  -0.000004  -0.000002  -0.000002   0.000000
     3  C    0.002870   0.000004  -0.000164  -0.000067   0.000056   0.000000
     4  C   -0.055828   0.004030  -0.001761  -0.005213  -0.000001   0.000000
     5  C   -0.008367   0.000174   0.000465  -0.000034  -0.000000  -0.000000
     6  C    0.000044   0.000003  -0.000033   0.000091   0.000000  -0.000000
     7  C    0.000416   0.000007   0.000015   0.000000   0.000341  -0.000092
     8  C    0.348324  -0.034664  -0.038801  -0.033821  -0.000012   0.000001
     9  C   -0.054436  -0.006090  -0.001749   0.003898   0.000023   0.000001
    10  C    0.002733  -0.000141  -0.000110  -0.000010  -0.001203  -0.000040
    11  C   -0.000094   0.000001  -0.000010   0.000001   0.000144  -0.000158
    12  H    0.000001   0.000000  -0.000000  -0.000000  -0.000085   0.000030
    13  C    0.000004  -0.000007   0.000000   0.000000   0.000006  -0.000021
    14  C   -0.000125   0.000088  -0.000038   0.000004  -0.000000   0.000001
    15  C   -0.008992   0.000134  -0.000013   0.000301   0.000002   0.000000
    16  H    0.000000  -0.000000   0.000000   0.000000   0.000000  -0.000000
    17  H    0.000001  -0.000000  -0.000000   0.000000  -0.000001   0.000000
    18  H   -0.000441   0.000098   0.000194  -0.001021  -0.000000   0.000000
    19  H   -0.000003  -0.000000  -0.000000   0.000002   0.000000   0.000000
    20  H    0.000000   0.000000   0.000000  -0.000000  -0.000000  -0.000000
    21  H   -0.000005   0.000001  -0.000000  -0.000000  -0.000000   0.000000
    22  H    0.000201  -0.001554   0.000086   0.000156   0.000000  -0.000000
    23  C   -0.018553  -0.003185   0.001741  -0.002645   0.002311  -0.000118
    24  C    0.000891   0.000090  -0.000022   0.000004  -0.083525   0.005021
    25  C   -0.000018  -0.000006   0.000000   0.000000   0.252615  -0.029775
    26  O   -0.000002  -0.000013   0.000000   0.000000  -0.081993   0.002470
    27  C    0.000003  -0.000000   0.000000  -0.000000  -0.002723   0.000185
    28  H   -0.000000  -0.000000   0.000000  -0.000000   0.000169   0.000007
    29  H    0.000000   0.000000  -0.000000   0.000000   0.000101  -0.000010
    30  H   -0.000000  -0.000000   0.000000  -0.000000   0.005396  -0.000382
    31  C    5.141720   0.394246   0.387193   0.394708   0.000000  -0.000000
    32  H    0.394246   0.516635  -0.028588  -0.026131  -0.000000  -0.000000
    33  H    0.387193  -0.028588   0.527797  -0.028389  -0.000000   0.000000
    34  H    0.394708  -0.026131  -0.028389   0.523240   0.000000  -0.000000
    35  O    0.000000  -0.000000  -0.000000   0.000000   8.479701   0.174272
    36  C   -0.000000  -0.000000   0.000000  -0.000000   0.174272   4.847315
    37  H    0.000000   0.000000  -0.000000   0.000000  -0.032931   0.393258
    38  H    0.000000  -0.000000   0.000000   0.000000  -0.032525   0.392576
    39  H   -0.000000  -0.000000   0.000000  -0.000000  -0.031331   0.394589
    40  H   -0.000032  -0.000002   0.000001  -0.000004   0.002429  -0.000112
    41  H   -0.000891   0.002408  -0.000125   0.000112   0.000238  -0.000012
    42  C   -0.003786   0.000151   0.000029  -0.001333  -0.000037   0.000001
    43  H   -0.002428   0.000290   0.000016   0.000004   0.000000  -0.000000
    44  H    0.000336   0.000032  -0.000018   0.000140  -0.000002   0.000000
    45  H   -0.000034  -0.000059   0.000004  -0.000004   0.000002  -0.000000
              37         38         39         40         41         42
     1  C    0.000000   0.000000   0.000000   0.000064  -0.000001  -0.000106
     2  C    0.000000   0.000000  -0.000000   0.001166   0.000000  -0.000029
     3  C    0.000000  -0.000001   0.000000  -0.004297   0.000278   0.000409
     4  C   -0.000000   0.000000   0.000000   0.000716   0.001613  -0.010346
     5  C   -0.000000   0.000000  -0.000000  -0.000085   0.000015  -0.000687
     6  C    0.000000  -0.000000  -0.000000  -0.000027   0.000003  -0.000159
     7  C    0.000007  -0.000054  -0.000001  -0.009332   0.001216   0.000463
     8  C    0.000000  -0.000000   0.000000   0.000847  -0.023003  -0.020473
     9  C   -0.000000  -0.000004   0.000000   0.000445  -0.005784   0.000939
    10  C   -0.000000   0.000087  -0.000002   0.000977   0.000381   0.000365
    11  C    0.000000   0.000374   0.000005  -0.000010  -0.000074   0.000002
    12  H    0.000001   0.000099  -0.000002  -0.000001   0.000001   0.000000
    13  C   -0.000000   0.000070   0.000001   0.000001  -0.000022  -0.000000
    14  C    0.000000   0.000000  -0.000000  -0.000001   0.000088   0.000001
    15  C   -0.000000  -0.000002   0.000000   0.000001   0.001508  -0.000001
    16  H   -0.000000  -0.000000  -0.000000   0.000000   0.000000  -0.000001
    17  H    0.000000  -0.000000  -0.000000  -0.000033   0.000000   0.000002
    18  H   -0.000000   0.000000  -0.000000   0.000001  -0.000001  -0.000132
    19  H    0.000000  -0.000000   0.000000  -0.000000  -0.000000  -0.000002
    20  H   -0.000000   0.000001   0.000000  -0.000000  -0.000000   0.000000
    21  H    0.000000  -0.000000  -0.000000   0.000000   0.000000  -0.000000
    22  H   -0.000000   0.000000   0.000000   0.000000  -0.000049  -0.000001
    23  C   -0.000000  -0.000004   0.000026  -0.037704   0.396646   0.327283
    24  C    0.000058  -0.000121  -0.000082   0.384705  -0.041242  -0.054176
    25  C    0.003804  -0.004234  -0.004410  -0.028043  -0.002099   0.001823
    26  O    0.000505   0.003594   0.002660   0.002063   0.007621   0.000251
    27  C    0.000008   0.000108  -0.000002  -0.000300  -0.000018  -0.000021
    28  H   -0.000002   0.000001   0.000000   0.001264  -0.000002  -0.000005
    29  H   -0.000000  -0.000003   0.000000  -0.000046   0.000001   0.000000
    30  H   -0.000091  -0.000272   0.000059   0.000068  -0.000005  -0.000001
    31  C    0.000000   0.000000  -0.000000  -0.000032  -0.000891  -0.003786
    32  H    0.000000  -0.000000  -0.000000  -0.000002   0.002408   0.000151
    33  H   -0.000000   0.000000   0.000000   0.000001  -0.000125   0.000029
    34  H    0.000000   0.000000  -0.000000  -0.000004   0.000112  -0.001333
    35  O   -0.032931  -0.032525  -0.031331   0.002429   0.000238  -0.000037
    36  C    0.393258   0.392576   0.394589  -0.000112  -0.000012   0.000001
    37  H    0.519908  -0.029741  -0.029084  -0.000026   0.000000  -0.000000
    38  H   -0.029741   0.526036  -0.034311   0.000014  -0.000002   0.000000
    39  H   -0.029084  -0.034311   0.521575  -0.000002  -0.000002  -0.000000
    40  H   -0.000026   0.000014  -0.000002   0.470276   0.002286  -0.002472
    41  H    0.000000  -0.000002  -0.000002   0.002286   0.457265  -0.033474
    42  C   -0.000000   0.000000  -0.000000  -0.002472  -0.033474   5.109027
    43  H    0.000000  -0.000000   0.000000   0.000079  -0.001371   0.393079
    44  H    0.000000  -0.000000  -0.000000   0.001748   0.002826   0.391556
    45  H   -0.000000   0.000000  -0.000000   0.000410  -0.000957   0.389928
              43         44         45
     1  C   -0.000005   0.000054   0.000001
     2  C    0.000005   0.000301  -0.000004
     3  C    0.000125   0.000697  -0.000069
     4  C   -0.000302  -0.000391   0.000439
     5  C    0.000571   0.000942   0.000006
     6  C   -0.000022   0.000895  -0.000006
     7  C   -0.000002   0.000082  -0.000042
     8  C   -0.002895  -0.004069   0.001855
     9  C    0.000148  -0.000098  -0.000003
    10  C    0.000012   0.000034  -0.000021
    11  C    0.000000   0.000000  -0.000000
    12  H   -0.000000   0.000000  -0.000000
    13  C   -0.000000  -0.000000   0.000000
    14  C   -0.000000   0.000000  -0.000000
    15  C    0.000003   0.000001  -0.000002
    16  H   -0.000000  -0.000000   0.000000
    17  H   -0.000000   0.000003  -0.000000
    18  H   -0.000127   0.000001   0.000002
    19  H   -0.000001   0.000001   0.000000
    20  H   -0.000000  -0.000000   0.000000
    21  H   -0.000000  -0.000000   0.000000
    22  H   -0.000001  -0.000000   0.000000
    23  C   -0.041500  -0.037165  -0.035280
    24  C    0.004378  -0.001424  -0.006118
    25  C   -0.000056   0.000108  -0.000139
    26  O   -0.000001  -0.000004   0.000018
    27  C    0.000000  -0.000010   0.000001
    28  H    0.000000  -0.000004   0.000000
    29  H   -0.000000   0.000000  -0.000000
    30  H    0.000000  -0.000000   0.000000
    31  C   -0.002428   0.000336  -0.000034
    32  H    0.000290   0.000032  -0.000059
    33  H    0.000016  -0.000018   0.000004
    34  H    0.000004   0.000140  -0.000004
    35  O    0.000000  -0.000002   0.000002
    36  C   -0.000000   0.000000  -0.000000
    37  H    0.000000   0.000000  -0.000000
    38  H   -0.000000  -0.000000   0.000000
    39  H    0.000000  -0.000000  -0.000000
    40  H    0.000079   0.001748   0.000410
    41  H   -0.001371   0.002826  -0.000957
    42  C    0.393079   0.391556   0.389928
    43  H    0.542086  -0.025186  -0.030622
    44  H   -0.025186   0.511843  -0.026385
    45  H   -0.030622  -0.026385   0.530677
 Mulliken charges:
               1
     1  C   -0.215317
     2  C   -0.205659
     3  C    0.018849
     4  C    0.073817
     5  C   -0.226133
     6  C   -0.198318
     7  C   -0.017329
     8  C   -0.123347
     9  C    0.085909
    10  C    0.017186
    11  C   -0.198884
    12  H    0.203352
    13  C   -0.201332
    14  C   -0.192874
    15  C   -0.211621
    16  H    0.201867
    17  H    0.209375
    18  H    0.206499
    19  H    0.203515
    20  H    0.199447
    21  H    0.201376
    22  H    0.204269
    23  C   -0.169251
    24  C   -0.336896
    25  C    0.835976
    26  O   -0.618670
    27  C   -0.518830
    28  H    0.186167
    29  H    0.180365
    30  H    0.200386
    31  C   -0.519563
    32  H    0.182046
    33  H    0.182283
    34  H    0.176019
    35  O   -0.651433
    36  C   -0.179008
    37  H    0.174328
    38  H    0.178314
    39  H    0.180312
    40  H    0.212970
    41  H    0.234630
    42  C   -0.488067
    43  H    0.163721
    44  H    0.183155
    45  H    0.176399
 Sum of Mulliken charges =  -0.00000
 Mulliken charges with hydrogens summed into heavy atoms:
               1
     1  C   -0.013450
     2  C    0.003716
     3  C    0.018849
     4  C    0.073817
     5  C   -0.019634
     6  C    0.005197
     7  C   -0.017329
     8  C   -0.123347
     9  C    0.085909
    10  C    0.017186
    11  C    0.004468
    13  C   -0.001885
    14  C    0.008502
    15  C   -0.007352
    23  C    0.065379
    24  C   -0.123926
    25  C    0.835976
    26  O   -0.618670
    27  C    0.048088
    31  C    0.020786
    35  O   -0.651433
    36  C    0.353946
    42  C    0.035208
 Electronic spatial extent (au):  <R**2>=           5983.5317
 Charge=             -0.0000 electrons
 Dipole moment (field-independent basis, Debye):
    X=             -1.2432    Y=             -0.8603    Z=             -0.7587  Tot=              1.6915
 Quadrupole moment (field-independent basis, Debye-Ang):
   XX=           -127.8637   YY=           -129.2904   ZZ=           -134.6517
   XY=             -2.5176   XZ=             -8.9115   YZ=              5.9427
 Traceless Quadrupole moment (field-independent basis, Debye-Ang):
   XX=              2.7382   YY=              1.3116   ZZ=             -4.0498
   XY=             -2.5176   XZ=             -8.9115   YZ=              5.9427
 Octapole moment (field-independent basis, Debye-Ang**2):
  XXX=             21.7244  YYY=              5.3285  ZZZ=             14.0751  XYY=             23.9430
  XXY=            -28.7659  XXZ=            -14.1314  XZZ=             12.4737  YZZ=            -15.9497
  YYZ=              4.3130  XYZ=            -19.9597
 Hexadecapole moment (field-independent basis, Debye-Ang**3):
 XXXX=          -3769.9349 YYYY=          -2275.0309 ZZZZ=          -1637.3044 XXXY=           -105.0277
 XXXZ=            -34.3680 YYYX=              8.3724 YYYZ=             43.8406 ZZZX=            -12.0425
 ZZZY=             23.1164 XXYY=           -978.7748 XXZZ=           -966.8233 YYZZ=           -659.6873
 XXYZ=              2.3060 YYXZ=              9.2197 ZZXY=             -2.8686
 N-N= 2.005551054503D+03 E-N=-6.246577017527D+03  KE= 9.557110517476D+02
 No NMR shielding tensors so no spin-rotation constants.
 Leave Link  601 at Sun Jun  2 12:50:33 2024, MaxMem=  1073741824 cpu:               1.0 elap:               0.2
 (Enter /public/home/zyli/senxu/soft/g16/l9999.exe)
 Unable to Open any file for archive entry.
 1\1\GINC-NODE9\SP\RHF\6-31G(d)\C21H22O2\XZZENG\02-Jun-2024\0\\#p RHF/6
 -31g(d) nosymm int=nobasistransform\\title\\0,1\C,0,-3.673296,-1.52057
 ,-1.298474\C,0,-2.309063,-1.564018,-1.521446\C,0,-1.442123,-0.614214,-
 0.930244\C,0,-1.989857,0.371963,-0.058369\C,0,-3.385055,0.381082,0.167
 201\C,0,-4.215398,-0.537318,-0.451963\C,0,-0.012877,-0.611404,-1.15085
 1\C,0,-1.059104,1.259047,0.620211\C,0,0.118051,1.627576,-0.151841\C,0,
 0.648281,0.669116,-1.060814\C,0,1.818509,0.985082,-1.790612\H,0,2.2266
 77,0.262367,-2.48954\C,0,2.427763,2.218148,-1.655627\C,0,1.906381,3.16
 4256,-0.756336\C,0,0.782456,2.865692,-0.006974\H,0,-4.325738,-2.2409,-
 1.78452\H,0,-1.904762,-2.318485,-2.187898\H,0,-3.819949,1.135209,0.814
 541\H,0,-5.288502,-0.494805,-0.285358\H,0,3.309763,2.455172,-2.24446\H
 ,0,2.385822,4.133562,-0.649076\H,0,0.393538,3.609944,0.679415\C,0,-0.1
 9407,-0.247575,1.895472\C,0,0.48658,-1.184398,1.087169\C,0,1.94978,-1.
 101829,1.008085\O,0,2.630971,-0.136497,1.306587\C,0,0.602908,-1.716097
 ,-1.977704\H,0,0.19251,-2.691663,-1.705138\H,0,0.411766,-1.561074,-3.0
 49082\H,0,1.682232,-1.772421,-1.831526\C,0,-1.603193,2.290454,1.590304
 \H,0,-0.818736,2.655145,2.259894\H,0,-2.01251,3.158459,1.056359\H,0,-2
 .402072,1.886554,2.214497\O,0,2.496238,-2.269693,0.554161\C,0,3.928454
 ,-2.282334,0.500349\H,0,4.199949,-3.268921,0.121299\H,0,4.301652,-1.49
 8721,-0.164876\H,0,4.354676,-2.126007,1.495694\H,0,0.055614,-2.168279,
 0.933439\H,0,0.44962,0.485634,2.375553\C,0,-1.359732,-0.742557,2.72500
 1\H,0,-1.954865,0.070311,3.149882\H,0,-2.026094,-1.385806,2.141754\H,0
 ,-0.980628,-1.336381,3.567942\\Version=ES64L-G16RevC.01\HF=-957.697491
 5\RMSD=7.168e-09\Dipole=-0.4890989,-0.3384561,-0.2985068\Quadrupole=2.
 035812,0.9751098,-3.0109218,-1.8717837,-6.6254566,4.4182202\PG=C01 [X(
 C21H22O2)]\\@
 The archive entry for this job was punched.


 NECESSARY EVIL: ONE WE LIKE TOO MUCH TO RELINQUISH.
 Job cpu time:       0 days  0 hours  5 minutes 29.3 seconds.
 Elapsed time:       0 days  0 hours  0 minutes 41.4 seconds.
 File lengths (MBytes):  RWF=     85 Int=      0 D2E=      0 Chk=     11 Scr=      1
 Normal termination of Gaussian 16 at Sun Jun  2 12:50:33 2024.
