
    -----------------------------------------------------------------------
          Psi4: An Open-Source Ab Initio Electronic Structure Package
                               Psi4 1.7a1.dev80 

                         Git: Rev {master} f790135 


    D. G. A. Smith, L. A. Burns, A. C. Simmonett, R. M. Parrish,
    M. C. Schieber, R. Galvelis, P. Kraus, H. Kruse, R. Di Remigio,
    A. Alenaizan, A. M. James, S. Lehtola, J. P. Misiewicz, M. Scheurer,
    R. A. Shaw, J. B. Schriber, Y. Xie, Z. L. Glick, D. A. Sirianni,
    J. S. O'Brien, J. M. Waldrop, A. Kumar, E. G. Hohenstein,
    B. P. Pritchard, B. R. Brooks, H. F. Schaefer III, A. Yu. Sokolov,
    K. Patkowski, A. E. DePrince III, U. Bozkaya, R. A. King,
    F. A. Evangelista, J. M. Turney, T. D. Crawford, C. D. Sherrill,
    J. Chem. Phys. 152(18) 184108 (2020). https://doi.org/10.1063/5.0006002

                            Additional Code Authors
    E. T. Seidl, C. L. Janssen, E. F. Valeev, M. L. Leininger,
    J. F. Gonthier, R. M. Richard, H. R. McAlexander, M. Saitow, X. Wang,
    P. Verma, M. H. Lechner, and A. Jiang

             Previous Authors, Complete List of Code Contributors,
                       and Citations for Specific Modules
    https://github.com/psi4/psi4/blob/master/codemeta.json
    https://github.com/psi4/psi4/graphs/contributors
    http://psicode.org/psi4manual/master/introduction.html#citing-psifour

    -----------------------------------------------------------------------


    Psi4 started on: Wednesday, 09 November 2022 02:59PM

    Process ID: 1016818
    Host:       ubuntu
    PSIDATADIR: /data/home/xzzeng/soft/psi4/objdir/stage/share/psi4
    Memory:     500.0 MiB
    Threads:    1
    
  ==> Input File <==

--------------------------------------------------------------------------
import forte

psi4.core.IOManager.shared_object().set_default_path('/data/home/xzzeng/soft/forte/tests/my_test/DAR_1/ccpvdz/is_cas_3/tmp/')

molecule{
 C                 -0.55455400   -0.48439700    0.00000600
 C                 -0.45441900   -1.81693400    0.00115200
 H                 -1.33803100   -2.44347500    0.00148700
 H                  0.51519700   -2.29911700    0.00194300
 C                  0.55455500    0.48440100    0.00000400
 C                  0.45442500    1.81693900    0.00115100
 H                  1.33804000    2.44347500    0.00148800
 H                 -0.51518800    2.29912700    0.00194800
 Cl                 2.17199100   -0.23428500   -0.00061000
 Cl                -2.17199400    0.23428200   -0.00061000
 C                  6.46970150  -20.72714110   -6.38187287
 C                  7.80534650  -20.72714010   -6.38121887
 C                  6.00551750  -22.14419310   -6.38168487
 C                  8.26953350  -22.14419210   -6.38136387
 O                  9.38320750  -22.58505810   -6.38209987
 O                  4.89184050  -22.58505810   -6.38172987
 O                  7.13752450  -22.95737410   -6.38102387
 H                  5.77672350  -19.89594010   -6.38208987
 H                  8.49832350  -19.89593810   -6.38073387
units angstrom
}

set globals{
 basis             cc-pvdz
 reference         rhf
# scf_type          pk
 scf_type          df
 d_convergence     8
 e_convergence     10
 mcscf_maxiter     1000
 frozen_docc       [ 5]
 restricted_docc   [ 50]
 active            [ 2]
}

set forte{
  active_space_solver    fci
  correlation_solver     dsrg-mrpt2
  int_type               df
  dsrg_s                 0.6
  frozen_docc            [ 5]
  restricted_docc        [ 50]
  active                 [ 2]
  dsrg_hbar_seq          true
  relax_ref            once 
}

Emcscf, wfn = energy('casscf',return_wfn=True)
energy('forte',ref_wfn=wfn)

--------------------------------------------------------------------------

Scratch directory: /data/home/xzzeng/soft/forte/tests/my_test/DAR_1/ccpvdz/is_cas_3/tmp/

*** tstart() called on ubuntu
*** at Wed Nov  9 14:59:08 2022

   => Loading Basis Set <=

    Name: CC-PVDZ
    Role: ORBITAL
    Keyword: BASIS
    atoms 1-2, 5-6, 11-14 entry C          line   138 file /data/home/xzzeng/soft/psi4/objdir/stage/share/psi4/basis/cc-pvdz.gbs 
    atoms 3-4, 7-8, 18-19 entry H          line    22 file /data/home/xzzeng/soft/psi4/objdir/stage/share/psi4/basis/cc-pvdz.gbs 
    atoms 9-10            entry CL         line   658 file /data/home/xzzeng/soft/psi4/objdir/stage/share/psi4/basis/cc-pvdz.gbs 
    atoms 15-17           entry O          line   198 file /data/home/xzzeng/soft/psi4/objdir/stage/share/psi4/basis/cc-pvdz.gbs 


         ---------------------------------------------------------
                                   SCF
               by Justin Turney, Rob Parrish, Andy Simmonett
                          and Daniel G. A. Smith
                              RHF Reference
                        1 Threads,    500 MiB Core
         ---------------------------------------------------------

  ==> Geometry <==

    Molecular point group: c1
    Full point group: C1

    Geometry (in Angstrom), charge = 0, multiplicity = 1:

       Center              X                  Y                   Z               Mass       
    ------------   -----------------  -----------------  -----------------  -----------------
         C           -3.734451775403     9.329279951804     2.843149936552    12.000000000000
         C           -3.634316775403     7.996742951804     2.844295936552    12.000000000000
         H           -4.517928775403     7.370201951804     2.844630936552     1.007825032230
         H           -2.664700775403     7.514559951804     2.845086936552     1.007825032230
         C           -2.625342775403    10.298077951804     2.843147936552    12.000000000000
         C           -2.725472775403    11.630615951804     2.844294936552    12.000000000000
         H           -1.841857775403    12.257151951804     2.844631936552     1.007825032230
         H           -3.695085775403    12.112803951804     2.845091936552     1.007825032230
         CL          -1.007906775403     9.579391951804     2.842533936552    34.968852682000
         CL          -5.351891775403    10.047958951804     2.842533936552    34.968852682000
         C            3.289803724597   -10.913464148196    -3.538728933448    12.000000000000
         C            4.625448724597   -10.913463148196    -3.538074933448    12.000000000000
         C            2.825619724597   -12.330516148196    -3.538540933448    12.000000000000
         C            5.089635724597   -12.330515148196    -3.538219933448    12.000000000000
         O            6.203309724597   -12.771381148196    -3.538955933448    15.994914619570
         O            1.711942724597   -12.771381148196    -3.538585933448    15.994914619570
         O            3.957626724597   -13.143697148196    -3.537879933448    15.994914619570
         H            2.596825724597   -10.082263148196    -3.538945933448     1.007825032230
         H            5.318425724597   -10.082261148196    -3.537589933448     1.007825032230

  Running in c1 symmetry.

  Rotational constants: A =      0.03179  B =      0.00053  C =      0.00053 [cm^-1]
  Rotational constants: A =    953.06662  B =     16.00862  C =     15.75782 [MHz]
  Nuclear repulsion =  663.593736815532793

  Charge       = 0
  Multiplicity = 1
  Electrons    = 112
  Nalpha       = 56
  Nbeta        = 56

  ==> Algorithm <==

  SCF Algorithm Type is DF.
  DIIS enabled.
  MOM disabled.
  Fractional occupation disabled.
  Guess Type is SAD.
  Energy threshold   = 1.00e-10
  Density threshold  = 1.00e-08
  Integral threshold = 1.00e-12

  ==> Primary Basis <==

  Basis Set: CC-PVDZ
    Blend: CC-PVDZ
    Number of shells: 100
    Number of basis functions: 220
    Number of Cartesian functions: 233
    Spherical Harmonics?: true
    Max angular momentum: 2

   => Loading Basis Set <=

    Name: (CC-PVDZ AUX)
    Role: JKFIT
    Keyword: DF_BASIS_SCF
    atoms 1-2, 5-6, 11-14 entry C          line   121 file /data/home/xzzeng/soft/psi4/objdir/stage/share/psi4/basis/cc-pvdz-jkfit.gbs 
    atoms 3-4, 7-8, 18-19 entry H          line    51 file /data/home/xzzeng/soft/psi4/objdir/stage/share/psi4/basis/cc-pvdz-jkfit.gbs 
    atoms 9-10            entry CL         line   667 file /data/home/xzzeng/soft/psi4/objdir/stage/share/psi4/basis/cc-pvdz-jkfit.gbs 
    atoms 15-17           entry O          line   221 file /data/home/xzzeng/soft/psi4/objdir/stage/share/psi4/basis/cc-pvdz-jkfit.gbs 

  ==> Integral Setup <==

  DFHelper Memory: AOs need 0.219 GiB; user supplied 0.366 GiB. Using in-core AOs.

  ==> MemDFJK: Density-Fitted J/K Matrices <==

    J tasked:                   Yes
    K tasked:                   Yes
    wK tasked:                   No
    OpenMP threads:               1
    Memory [MiB]:               375
    Algorithm:                 Core
    Schwarz Cutoff:           1E-12
    Mask sparsity (%):      50.7397
    Fitting Condition:        1E-10

   => Auxiliary Basis Set <=

  Basis Set: (CC-PVDZ AUX)
    Blend: CC-PVDZ-JKFIT
    Number of shells: 390
    Number of basis functions: 1132
    Number of Cartesian functions: 1301
    Spherical Harmonics?: true
    Max angular momentum: 3

  Minimum eigenvalue in the overlap matrix is 1.0190448187E-03.
  Reciprocal condition number of the overlap matrix is 1.9058221396E-04.
    Using symmetric orthogonalization.

  ==> Pre-Iterations <==

  SCF Guess: Superposition of Atomic Densities via on-the-fly atomic UHF (no occupation information).

   -------------------------
    Irrep   Nso     Nmo    
   -------------------------
     A        220     220 
   -------------------------
    Total     220     220
   -------------------------

  ==> Iterations <==

                           Total Energy        Delta E     RMS |[F,P]|

   @DF-RHF iter SAD: -1448.43240692476456   -1.44843e+03   0.00000e+00 
   @DF-RHF iter   1: -1449.73556649554439   -1.30316e+00   3.44386e-03 ADIIS/DIIS
   @DF-RHF iter   2: -1449.90604007649449   -1.70474e-01   2.50819e-03 ADIIS/DIIS
   @DF-RHF iter   3: -1450.01769119646588   -1.11651e-01   4.13385e-04 ADIIS/DIIS
   @DF-RHF iter   4: -1450.02305239554084   -5.36120e-03   1.56679e-04 ADIIS/DIIS
   @DF-RHF iter   5: -1450.02391363573543   -8.61240e-04   4.52438e-05 DIIS
   @DF-RHF iter   6: -1450.02400222348979   -8.85878e-05   1.92854e-05 DIIS
   @DF-RHF iter   7: -1450.02402419331224   -2.19698e-05   7.16665e-06 DIIS
   @DF-RHF iter   8: -1450.02402713836955   -2.94506e-06   2.47442e-06 DIIS
   @DF-RHF iter   9: -1450.02402742972913   -2.91360e-07   9.94443e-07 DIIS
   @DF-RHF iter  10: -1450.02402747555880   -4.58297e-08   3.21701e-07 DIIS
   @DF-RHF iter  11: -1450.02402748040640   -4.84761e-09   7.86794e-08 DIIS
   @DF-RHF iter  12: -1450.02402748077975   -3.73348e-10   2.16318e-08 DIIS
   @DF-RHF iter  13: -1450.02402748080544   -2.56932e-11   6.59567e-09 DIIS
  Energy and wave function converged.


  ==> Post-Iterations <==

    Orbital Energies [Eh]
    ---------------------

    Doubly Occupied:                                                      

       1A   -104.843407     2A   -104.843343     3A    -20.648088  
       4A    -20.594171     5A    -20.594167     6A    -11.428904  
       7A    -11.428883     8A    -11.330995     9A    -11.330250  
      10A    -11.318618    11A    -11.316948    12A    -11.266941  
      13A    -11.266929    14A    -10.570178    15A    -10.570113  
      16A     -8.037751    17A     -8.037685    18A     -8.034382  
      19A     -8.034315    20A     -8.034200    21A     -8.034133  
      22A     -1.517522    23A     -1.442039    24A     -1.396574  
      25A     -1.200326    26A     -1.155288    27A     -1.140586  
      28A     -1.027703    29A     -1.026017    30A     -0.958570  
      31A     -0.859523    32A     -0.858367    33A     -0.828390  
      34A     -0.732705    35A     -0.723969    36A     -0.693504  
      37A     -0.689095    38A     -0.679854    39A     -0.668608  
      40A     -0.655525    41A     -0.638722    42A     -0.614511  
      43A     -0.593758    44A     -0.574398    45A     -0.573978  
      46A     -0.553675    47A     -0.517718    48A     -0.503997  
      49A     -0.502605    50A     -0.496056    51A     -0.477787  
      52A     -0.472638    53A     -0.452388    54A     -0.444631  
      55A     -0.407818    56A     -0.348990  

    Virtual:                                                              

      57A      0.025185    58A      0.085048    59A      0.165851  
      60A      0.173028    61A      0.201481    62A      0.202342  
      63A      0.207670    64A      0.210235    65A      0.219347  
      66A      0.225174    67A      0.238095    68A      0.255968  
      69A      0.300550    70A      0.314808    71A      0.337595  
      72A      0.369230    73A      0.400365    74A      0.406525  
      75A      0.425670    76A      0.446954    77A      0.448378  
      78A      0.531095    79A      0.559053    80A      0.592215  
      81A      0.609609    82A      0.616683    83A      0.627381  
      84A      0.640846    85A      0.648729    86A      0.669240  
      87A      0.675943    88A      0.681044    89A      0.683003  
      90A      0.690127    91A      0.697878    92A      0.698034  
      93A      0.703388    94A      0.718298    95A      0.721865  
      96A      0.738362    97A      0.753252    98A      0.776301  
      99A      0.784287   100A      0.785756   101A      0.802372  
     102A      0.803632   103A      0.803965   104A      0.817209  
     105A      0.828908   106A      0.835459   107A      0.849783  
     108A      0.866034   109A      0.870285   110A      0.905259  
     111A      0.920078   112A      0.936405   113A      0.937156  
     114A      0.945618   115A      0.960274   116A      0.962227  
     117A      0.983391   118A      1.008266   119A      1.034563  
     120A      1.049673   121A      1.052958   122A      1.054502  
     123A      1.087750   124A      1.100237   125A      1.135109  
     126A      1.138232   127A      1.152003   128A      1.154170  
     129A      1.155898   130A      1.165649   131A      1.182519  
     132A      1.193716   133A      1.196523   134A      1.234029  
     135A      1.244566   136A      1.258246   137A      1.258650  
     138A      1.303309   139A      1.328133   140A      1.344113  
     141A      1.346863   142A      1.354142   143A      1.361993  
     144A      1.375916   145A      1.403787   146A      1.421816  
     147A      1.440910   148A      1.445314   149A      1.509003  
     150A      1.512082   151A      1.569688   152A      1.571534  
     153A      1.581590   154A      1.607081   155A      1.658010  
     156A      1.669580   157A      1.684944   158A      1.706906  
     159A      1.716557   160A      1.719433   161A      1.729044  
     162A      1.749744   163A      1.750090   164A      1.784105  
     165A      1.821100   166A      1.829688   167A      1.857738  
     168A      1.873284   169A      1.879043   170A      1.903558  
     171A      1.939859   172A      1.988661   173A      1.991260  
     174A      2.014083   175A      2.051844   176A      2.056218  
     177A      2.076990   178A      2.104590   179A      2.121288  
     180A      2.139895   181A      2.144073   182A      2.166407  
     183A      2.183682   184A      2.240483   185A      2.267236  
     186A      2.297070   187A      2.319592   188A      2.350151  
     189A      2.388191   190A      2.390741   191A      2.426282  
     192A      2.441494   193A      2.497457   194A      2.540821  
     195A      2.554039   196A      2.604068   197A      2.666962  
     198A      2.720140   199A      2.780757   200A      2.799396  
     201A      2.930188   202A      2.954767   203A      2.955060  
     204A      2.962448   205A      2.994656   206A      3.038586  
     207A      3.099890   208A      3.108913   209A      3.187614  
     210A      3.269311   211A      3.354280   212A      3.430844  
     213A      3.475491   214A      3.503051   215A      3.568369  
     216A      3.595785   217A      3.794475   218A      3.880377  
     219A      3.893684   220A      3.910441  

    Final Occupation by Irrep:
              A 
    DOCC [    56 ]
    NA   [    56 ]
    NB   [    56 ]

  @DF-RHF Final Energy: -1450.02402748080544

   => Energetics <=

    Nuclear Repulsion Energy =            663.5937368155327931
    One-Electron Energy =               -3311.2510505318186915
    Two-Electron Energy =                1197.6332862354804547
    Total Energy =                      -1450.0240274808054437

Computation Completed


Properties will be evaluated at   0.000000,   0.000000,   0.000000 [a0]

Properties computed using the SCF density matrix


 Multipole Moments:

 ------------------------------------------------------------------------------------
     Multipole            Electronic (a.u.)      Nuclear  (a.u.)        Total (a.u.)
 ------------------------------------------------------------------------------------

 L = 1.  Multiply by 2.5417464519 to convert [e a0] to [Debye]
 Dipole X            :         -1.3763566            1.3751143           -0.0012423
 Dipole Y            :          2.1239989           -0.2569411            1.8670577
 Dipole Z            :          1.2234651           -1.2214634            0.0020017
 Magnitude           :                                                    1.8670592

 ------------------------------------------------------------------------------------

*** tstop() called on ubuntu at Wed Nov  9 14:59:18 2022
Module time:
	user time   =       9.79 seconds =       0.16 minutes
	system time =       0.67 seconds =       0.01 minutes
	total time  =         10 seconds =       0.17 minutes
Total time:
	user time   =       9.79 seconds =       0.16 minutes
	system time =       0.67 seconds =       0.01 minutes
	total time  =         10 seconds =       0.17 minutes
 MINTS: Wrapper to libmints.
   by Justin Turney

   Calculation information:
      Number of threads:                 1
      Number of atoms:                  19
      Number of AO shells:             100
      Number of SO shells:             100
      Number of primitives:            372
      Number of atomic orbitals:       233
      Number of basis functions:       220

      Number of irreps:                  1
      Integral cutoff                 1.00e-12
      Number of functions per irrep: [ 220 ]

 OEINTS: Overlap, kinetic, potential, dipole, and quadrupole integrals
         stored in file 35.

      Computing two-electron integrals...done
      Computed 62271522 non-zero two-electron integrals.
        Stored in file 33.

 MINTS: Wrapper to libmints.
   by Justin Turney

   Calculation information:
      Number of threads:                 1
      Number of atoms:                  19
      Number of AO shells:             100
      Number of SO shells:             100
      Number of primitives:            372
      Number of atomic orbitals:       233
      Number of basis functions:       220

      Number of irreps:                  1
      Integral cutoff                 1.00e-12
      Number of functions per irrep: [ 220 ]

 OEINTS: Overlap, kinetic, potential, dipole, and quadrupole integrals
         stored in file 35.

      Computing two-electron integrals...done
      Computed 62271522 non-zero two-electron integrals.
        Stored in file 33.


         ---------------------------------------------------------
                Multi-Configurational Self-Consistent Field
                            (a 'D E T C I' module)

                 Daniel G. A. Smith, C. David Sherrill, and
                              Matt L. Leininger
         ---------------------------------------------------------


   ==> Parameters <==

    EX LEVEL       =        2      H0 BLOCKSIZE  =     1000
    VAL EX LEVEL   =        0      H0 GUESS SIZE =     1000
    H0COUPLINGSIZE =        0      H0 COUPLING   =       NO
    MAXITER        =       12      NUM PRINT     =       20
    NUM ROOTS      =        1      ICORE         =        1
    PRINT LVL      =        1      FCI           =      YES
    R CONV         = 1.00e-07      MIXED         =      YES
    E CONV         = 1.00e-10      MIXED4        =      YES
    R4S            =       NO      REPL OTF      =       NO
    DIAG METHOD    =      SEM      FOLLOW ROOT   =        0
    PRECONDITIONER = DAVIDSON      UPDATE        = DAVIDSON
    S              =   0.0000      Ms0           =      YES
    GUESS VECTOR   =  H0BLOCK      OPENTYPE      =     NONE
    COLLAPSE SIZE  =        1      HD AVG        = EVANGELISTI
    MAX NUM VECS   =       13      REF SYM       =     AUTO
    IOPEN        =       NO

    EX ALLOW       =  1  1 
    STATE AVERAGE  =  0(1.00) 

   ==> CI Orbital and Space information <==

   ------------------------------------
               Space    Total     A
   ------------------------------------
                 Nso      220   220
                 Nmo      220   220
               Ndocc       56    56
               Nsocc        0     0
   ------------------------------------
               MCSCF Spaces
   ------------------------------------
         Frozen DOCC        5     5
     Restricted DOCC       50    50
              Active        2     2
     Restricted UOCC      163   163
         Frozen UOCC        0     0
   ------------------------------------

   ==> Setting up CI strings <==

    There are 2 alpha and 2 beta strings
    The CI space requires 4 (4.00E+00) determinants and 1 blocks

   ==> Setting up MCSCF integrals <==

  DFHelper Memory: AOs need 0.219 GiB; user supplied 0.391 GiB. Using in-core AOs.

  ==> MemDFJK: Density-Fitted J/K Matrices <==

    J tasked:                   Yes
    K tasked:                   Yes
    wK tasked:                   No
    OpenMP threads:               1
    Memory [MiB]:               400
    Algorithm:                 Core
    Schwarz Cutoff:           1E-12
    Mask sparsity (%):      50.7397
    Fitting Condition:        1E-10

   => Auxiliary Basis Set <=

  Basis Set: (CC-PVDZ AUX)
    Blend: CC-PVDZ-JKFIT
    Number of shells: 390
    Number of basis functions: 1132
    Number of Cartesian functions: 1301
    Spherical Harmonics?: true
    Max angular momentum: 3


   ==> Starting MCSCF iterations <==

        Iter         Total Energy       Delta E   Orb RMS    CI RMS  NCI NORB
   @MCSCF  1:  -1450.024018355929    9.1249e-06  1.28e-06  1.26e-30    1    1  Initial CI
      Warning! Maxstep = 105526035439.79, scaling to 0.50
   @MCSCF  2:  -1450.024248357064   -2.3000e-04  1.60e-05  9.50e-18    2    1  TS
      Warning! Maxstep = 0.90, scaling to 0.50
   @MCSCF  3:  -1450.025434617618   -1.1863e-03  6.63e-05  2.12e-15    2    1  TS
      Warning! Maxstep = 0.52, scaling to 0.50
   @MCSCF  4:  -1450.028528470773   -3.0939e-03  1.83e-04  5.10e-15    2    1  TS, DIIS
   @MCSCF  5:  -1450.029646892796   -1.1184e-03  9.74e-05  8.14e-15    2    1  TS, DIIS
   @MCSCF  6:  -1450.029759301427   -1.1241e-04  7.23e-05  8.50e-15    2    1  TS, DIIS
   @MCSCF  7:  -1450.029829976796   -7.0675e-05  4.91e-05  1.02e-14    2    1  TS, DIIS
   @MCSCF  8:  -1450.029876265677   -4.6289e-05  2.06e-05  1.00e-14    2    1  TS, DIIS
   @MCSCF  9:  -1450.029912113144   -3.5847e-05  2.59e-05  1.11e-14    2    1  TS, DIIS
   @MCSCF 10:  -1450.029879850847    3.2262e-05  1.29e-05  1.12e-14    2    1  TS, DIIS
   @MCSCF 11:  -1450.029878398538    1.4523e-06  5.08e-06  8.76e-15    2    1  TS, DIIS
   @MCSCF 12:  -1450.029878576247   -1.7771e-07  2.28e-06  5.98e-15    2    1  TS, DIIS
   @MCSCF 13:  -1450.029878596363   -2.0116e-08  1.01e-06  4.68e-15    2    1  TS, DIIS

          @MCSCF has converged!

   @MCSCF Final Energy: -1450.029878596362778

   Computing CI Semicanonical Orbitals

   ==> Starting CI iterations <==

    H0 Block Eigenvalue = -1450.02987860

    Simultaneous Expansion Method (Block Davidson Method)
    Using 1 initial trial vectors

     Iter   Root       Total Energy       Delta E      C RMS

   @CI  0:     0  -1450.029878596362   -1.0623E+00   1.2959E-12  
    Warning: Norm of correction (root 0) is < 1.0E-13
   @CI  1:     0  -1450.029878596362   0.0000E+00   2.6072E-13 c

   ==> Energetics <==

    SCF energy =         -1450.024027480805444
    Total MCSCF energy = -1450.029878596362778

   ==> MCSCF root 0 information <==

    MCSCF Root 0 energy =  -1450.029878596362323

   Active Space Natural occupation numbers:

         A   1.986103         A   0.013897

   The 4 most important determinants:

    *   1   -0.996502  (    0,    0)  56AX 
    *   2    0.083342  (    1,    1)  57AX 
    *   3    0.004307  (    0,    1)  56AA 57AB 
    *   4    0.004307  (    1,    0)  56AB 57AA 



Properties will be evaluated at   0.000000,   0.000000,   0.000000 [a0]

Properties computed using the CASSCF density matrix


 Multipole Moments:

 ------------------------------------------------------------------------------------
     Multipole            Electronic (a.u.)      Nuclear  (a.u.)        Total (a.u.)
 ------------------------------------------------------------------------------------

 L = 1.  Multiply by 2.5417464519 to convert [e a0] to [Debye]
 Dipole X            :         -1.3763414            1.3751143           -0.0012271
 Dipole Y            :          2.1239997           -0.2569411            1.8670586
 Dipole Z            :          1.2234994           -1.2214634            0.0020360
 Magnitude           :                                                    1.8670601

 ------------------------------------------------------------------------------------

Scratch directory: /data/home/xzzeng/soft/forte/tests/my_test/DAR_1/ccpvdz/is_cas_3/tmp/

  Forte
  ----------------------------------------------------------------------------
  A suite of quantum chemistry methods for strongly correlated electrons

    git branch:  - git commit: 

  Developed by:
    Francesco A. Evangelista, Chenyang Li, Kevin P. Hannon,
    Jeffrey B. Schriber, Tianyuan Zhang, Chenxi Cai,
    Nan He, Nicholas Stair, Shuhe Wang, Renke Huang
  ----------------------------------------------------------------------------

  Size of Determinant class: 128 bits

  Preparing forte objects from a Psi4 Wavefunction object
  Read options for space FROZEN_DOCC
  Read options for space RESTRICTED_DOCC
  Read options for space ACTIVE
  Read options for space FROZEN_DOCC
  Read options for space RESTRICTED_DOCC

  ==> MO Space Information <==

  -------------------------------
                        A   Sum
  -------------------------------
    FROZEN_DOCC         5     5
    RESTRICTED_DOCC    50    50
    GAS1                2     2
    GAS2                0     0
    GAS3                0     0
    GAS4                0     0
    GAS5                0     0
    GAS6                0     0
    RESTRICTED_UOCC   163   163
    FROZEN_UOCC         0     0
    Total             220   220
  -------------------------------   => Loading Basis Set <=

    Name: CC-PVDZ
    Role: ORBITAL
    Keyword: BASIS
    atoms 1-2, 5-6, 11-14 entry C          line   138 file /data/home/xzzeng/soft/psi4/objdir/stage/share/psi4/basis/cc-pvdz.gbs 
    atoms 3-4, 7-8, 18-19 entry H          line    22 file /data/home/xzzeng/soft/psi4/objdir/stage/share/psi4/basis/cc-pvdz.gbs 
    atoms 9-10            entry CL         line   658 file /data/home/xzzeng/soft/psi4/objdir/stage/share/psi4/basis/cc-pvdz.gbs 
    atoms 15-17           entry O          line   198 file /data/home/xzzeng/soft/psi4/objdir/stage/share/psi4/basis/cc-pvdz.gbs 


  Checking orbital orthonormality against current geometry ... Done (OK)

   => Loading Basis Set <=

    Name: (CC-PVDZ AUX)
    Role: RIFIT
    Keyword: DF_BASIS_MP2
    atoms 1-2, 5-6, 11-14 entry C          line   159 file /data/home/xzzeng/soft/psi4/objdir/stage/share/psi4/basis/cc-pvdz-ri.gbs 
    atoms 3-4, 7-8, 18-19 entry H          line    19 file /data/home/xzzeng/soft/psi4/objdir/stage/share/psi4/basis/cc-pvdz-ri.gbs 
    atoms 9-10            entry CL         line   649 file /data/home/xzzeng/soft/psi4/objdir/stage/share/psi4/basis/cc-pvdz-ri.gbs 
    atoms 15-17           entry O          line   235 file /data/home/xzzeng/soft/psi4/objdir/stage/share/psi4/basis/cc-pvdz-ri.gbs 

   => Loading Basis Set <=

    Name: STO-3G
    Role: ORBITAL
    Keyword: MINAO_BASIS
    atoms 1-2, 5-6, 11-14 entry C          line    61 file /data/home/xzzeng/soft/psi4/objdir/stage/share/psi4/basis/sto-3g.gbs 
    atoms 3-4, 7-8, 18-19 entry H          line    19 file /data/home/xzzeng/soft/psi4/objdir/stage/share/psi4/basis/sto-3g.gbs 
    atoms 9-10            entry CL         line   195 file /data/home/xzzeng/soft/psi4/objdir/stage/share/psi4/basis/sto-3g.gbs 
    atoms 15-17           entry O          line    81 file /data/home/xzzeng/soft/psi4/objdir/stage/share/psi4/basis/sto-3g.gbs 


  Forte will use psi4 integrals

  ==> Primary Basis Set Summary <==

  Basis Set: CC-PVDZ
    Blend: CC-PVDZ
    Number of shells: 100
    Number of basis functions: 220
    Number of Cartesian functions: 233
    Spherical Harmonics?: true
    Max angular momentum: 2


  JK created using MemDF integrals
  DFHelper Memory: AOs need 0.165 GiB; user supplied 0.391 GiB. Using in-core AOs.

  ==> MemDFJK: Density-Fitted J/K Matrices <==

    J tasked:                   Yes
    K tasked:                   Yes
    wK tasked:                   No
    OpenMP threads:               1
    Memory [MiB]:               400
    Algorithm:                 Core
    Schwarz Cutoff:           1E-12
    Mask sparsity (%):      50.7397
    Fitting Condition:        1E-10

   => Auxiliary Basis Set <=

  Basis Set: (CC-PVDZ AUX)
    Blend: CC-PVDZ-RI
    Number of shells: 282
    Number of basis functions: 852
    Number of Cartesian functions: 996
    Spherical Harmonics?: true
    Max angular momentum: 3



  ==> Integral Transformation <==

  Number of molecular orbitals:                        220
  Number of correlated molecular orbitals:             215
  Number of frozen occupied orbitals:                    5
  Number of frozen unoccupied orbitals:                  0
  Two-electron integral type:              Density fitting


  Computing density fitted integrals

  Number of auxiliary basis functions:  852
  Need 329.89 MB to store DF integrals
  DFHelper Memory: AOs need 0.165 GiB; user supplied 0.275 GiB. Using in-core AOs.

  ==> DFHelper <==
    NBF:                             220
    NAux:                            852
    Schwarz Cutoff:                1E-12
    Mask sparsity (%):                51
    DFH Avail. Memory [GiB]:       0.275
    OpenMP threads:                    1
    Algorithm:                     STORE
    AO Core:                        True
    MO Core:                       False
    Hold Metric:                   False
    Metric Power:                 -0.500
    Fitting Condition:             1E-10
    Q Shell Max:                       7



  Transforming DF Integrals
  Timing for density-fitting transformation:                  1.198 s.

  Frozen-core energy        -833.155821001545632 a.u.
  Timing for frozen one-body operator:                        0.089 s.
  Resorting integrals after freezing core.
  Timing for resorting DF integrals:                          0.516 s.
  Timing for freezing core and virtual orbitals:              0.605 s.
  Timing for computing density-fitted integrals:              5.200 s.

  ==> Summary of Active Space Solver Input <==

    Irrep.  Multi.(2ms)      N
    --------------------------
        A      1  (  0)      1
    --------------------------
    N: number of roots
    ms: spin z component
    Total number of roots:   1
    --------------------------


  ==> String Lists <==

  Number of alpha electrons     = 1
  Number of beta electrons      = 1
  Number of alpha strings       = 2
  Number of beta strings        = 2
  Timing for strings        =      0.000 s
  Timing for NN strings     =      0.000 s
  Timing for VO strings     =      0.000 s
  Timing for OO strings     =      0.000 s
  Timing for VVOO strings   =      0.000 s
  Timing for VOVO strings   =      0.000 s
  Timing for 1-hole strings =      0.000 s
  Timing for 2-hole strings =      0.000 s
  Timing for 3-hole strings =      0.000 s
  Total timing              =      0.000 s

  ==> FCI Solver <==

    Number of determinants                           4
    Symmetry                                         0
    Multiplicity                                     1
    Number of roots                                  1
    Target root                                      0
    Trial vectors per root                          10

  Allocating memory for the Hamiltonian algorithm. Size: 2 x 2 x 2.   Memory: 0.000000 GB

  ==> FCI Initial Guess <==

  ---------------------------------------------
    Root            Energy     <S^2>   Spin
  ---------------------------------------------
      0    -1450.049863078720  0.000  singlet
      1    -1449.706654819335  2.000  triplet
      2    -1449.569338035469  0.000  singlet
      3    -1449.190080294331  0.000  singlet
  ---------------------------------------------
  Timing for initial guess  =      0.000 s

  Projecting out root 1

  ==> Diagonalizing Hamiltonian <==

  Energy   convergence: 1.00e-10
  Residual convergence: 1.00e-06
  -----------------------------------------------------
    Iter.      Avg. Energy       Delta_E     Res. Norm
  -----------------------------------------------------
      1    -1450.049863078721  -1.450e+03  +5.562e-13
      2    -1450.049863078721  +0.000e+00  +5.562e-13
  -----------------------------------------------------
  The Davidson-Liu algorithm converged in 3 iterations.

  ==> Root No. 0 <==

    20     -0.99650300

    Total Energy:   -1450.049863078721, <S^2>: -0.000000

  ==> Energy Summary <==

    Multi.(2ms)  Irrep.  No.               Energy      <S^2>
    --------------------------------------------------------
       1  (  0)     A     0    -1450.049863078721  -0.000000
    --------------------------------------------------------

  ==> Computing RDMs for Root No. 0 <==

    Timing for 1-RDM: 0.000 s

  ==> NATURAL ORBITALS <==

        1A      1.986105      2A      0.013895  


  ==> Permanent Dipole Moments [e a0] for Singlet (Ms = 0) A <==

       State           DM_X           DM_Y           DM_Z           |DM|
    --------------------------------------------------------------------
          0A    -0.00122711     1.86705859     0.00203589     1.86706010
    --------------------------------------------------------------------

  ==> Computing RDMs for Root No. 0 <==

    Timing for 1-RDM: 0.000 s
    Timing for 2-RDM: 0.000 s
    Timing for 3-RDM: 0.000 s

  ==> NATURAL ORBITALS <==

        1A      1.986105      2A      0.013895  


  ==> Semicanonicalize Orbitals <==

    MIX INACTIVE ORBITALS   ...... FALSE
    MIX GAS ACTIVE ORBITALS ...... FALSE
    FROZEN_DOCC     ...  CANONICAL
    FROZEN_UOCC     ...  CANONICAL
    GAS1            ...  CANONICAL
    RESTRICTED_DOCC ...  CANONICAL
    RESTRICTED_UOCC ...  CANONICAL

    Off-Diag. Elements       Max           2-Norm
    ------------------------------------------------
    FROZEN_DOCC          0.0000000265   0.0000000388
    GAS1                 0.0000119655   0.0000169218
    RESTRICTED_DOCC      0.0003357347   0.0017644072
    RESTRICTED_UOCC      0.0008109937   0.0072602276
    ------------------------------------------------
  Integrals are about to be updated.
  Computing density fitted integrals

  Number of auxiliary basis functions:  852
  Need 329.89 MB to store DF integrals
  DFHelper Memory: AOs need 0.165 GiB; user supplied 0.275 GiB. Using in-core AOs.

  ==> DFHelper <==
    NBF:                             220
    NAux:                            852
    Schwarz Cutoff:                1E-12
    Mask sparsity (%):                51
    DFH Avail. Memory [GiB]:       0.275
    OpenMP threads:                    1
    Algorithm:                     STORE
    AO Core:                        True
    MO Core:                       False
    Hold Metric:                   False
    Metric Power:                 -0.500
    Fitting Condition:             1E-10
    Q Shell Max:                       7



  Transforming DF Integrals
  Timing for density-fitting transformation:                  1.207 s.

  Frozen-core energy        -833.155821001546087 a.u.
  Timing for frozen one-body operator:                        0.089 s.
  Resorting integrals after freezing core.
  Timing for resorting DF integrals:                          0.471 s.
  Timing for freezing core and virtual orbitals:              0.561 s.
  Integrals update took     5.100 s.
  Orbital rotations on spin-dependent RDMs ...
    Transformed 1 RDMs.
    Transformed 2 RDMs.
    Transformed 3 RDMs.
  Timing for orbital canonicalization:                        5.671 s.

  ==> Multireference Driven Similarity Renormalization Group <==

    Computing Fock matrix and cleaning JK ........... Done
    Reading DSRG options ............................ Done
    Setting ambit MO space .......................... Done
    Preparing tensors for density cumulants ......... Done
    Filling Fock matrix from ForteIntegrals ......... Done

              ----------------------------------------------------
                    MR-DSRG Second-Order Perturbation Theory
                Chenyang Li, Kevin Hannon, Francesco Evangelista
              ----------------------------------------------------

    References:
      u-DSRG-MRPT2:    J. Chem. Theory Comput. 2015, 11, 2097.
      (pr-)DSRG-MRPT2: J. Chem. Phys. 2017, 146, 124132.

 Created V and out of memory
 DANGER DANGER Will Robinson

 Your memory requirements were underestimated.  Please be more careful! 


 Created B and out of memory
 DANGER DANGER Will Robinson

 Your memory requirements were underestimated.  Please be more careful! 


 Created Fock and out of memory
 DANGER DANGER Will Robinson

 Your memory requirements were underestimated.  Please be more careful! 


 Created 1-body Hbar and out of memory
 DANGER DANGER Will Robinson

 Your memory requirements were underestimated.  Please be more careful! 


 Created 2-body Hbar and out of memory
 DANGER DANGER Will Robinson

 Your memory requirements were underestimated.  Please be more careful! 


  ==> Calculation Information <==

    int_type                                              DF
    source operator                                 STANDARD
    reference relaxation                                ONCE
    state_type                                STATE-SPECIFIC
    form Hbar3                                         FALSE
    flow parameter                                 6.000e-01
    taylor expansion threshold                     1.000e-03
    intruder_tamp                                  1.000e-01
    ntamp                                                 15


 Created Uactv and out of memory
 DANGER DANGER Will Robinson

 Your memory requirements were underestimated.  Please be more careful! 


  ==> Checking Semicanonical Orbitals <==


 Created Fd and out of memory
 DANGER DANGER Will Robinson

 Your memory requirements were underestimated.  Please be more careful! 

    Block             Fa Max         Fa Mean           Fb Max         Fb Mean
    -------------------------------------------------------------------------
    CORE        0.0000000000    0.0000000000     0.0000000000    0.0000000000
    VIRTUAL     0.0000000000    0.0000000000     0.0000000000    0.0000000000
    GAS1        0.0000000000    0.0000000000     0.0000000000    0.0000000000
    -------------------------------------------------------------------------
    Orbitals are semi-canonicalized.

  ==> Computing DSRG-MRPT2 ... <==


 Created T1 Amplitudes and out of memory
 DANGER DANGER Will Robinson

 Your memory requirements were underestimated.  Please be more careful! 


 Created T2 Amplitudes and out of memory
 DANGER DANGER Will Robinson

 Your memory requirements were underestimated.  Please be more careful! 

    Computing T2 amplitudes                  ...  Done. Timing       10.561411 s
    Computing T1 amplitudes                  ...

 Created temp and out of memory
 DANGER DANGER Will Robinson

 Your memory requirements were underestimated.  Please be more careful! 
  Done. Timing        0.001449 s
    Renormalizing two-electron integrals     ...  Done. Timing        8.604509 s
    Renormalizing Fock matrix elements       ...

 Created temp and out of memory
 DANGER DANGER Will Robinson

 Your memory requirements were underestimated.  Please be more careful! 
  Done. Timing        0.001959 s
    Computing <[F, T1]>                      ...  Done. Timing        0.000304 s
    Computing <[F, T2]>                      ...

 Created temp and out of memory
 DANGER DANGER Will Robinson

 Your memory requirements were underestimated.  Please be more careful! 
  Done. Timing        0.000657 s
    Computing <[V, T1]>                      ...

 Created temp and out of memory
 DANGER DANGER Will Robinson

 Your memory requirements were underestimated.  Please be more careful! 
  Done. Timing        0.000641 s
    Computing <[V, T2]> (C_2)^4              ...

 Created temp and out of memory
 DANGER DANGER Will Robinson

 Your memory requirements were underestimated.  Please be more careful! 


 Created temp and out of memory
 DANGER DANGER Will Robinson

 Your memory requirements were underestimated.  Please be more careful! 
  Done. Timing        1.688619 s
    Computing <[V, T2]> C_4 (C_2)^2 HH       ...

 Created temp and out of memory
 DANGER DANGER Will Robinson

 Your memory requirements were underestimated.  Please be more careful! 
  Done. Timing        0.001012 s
    Computing <[V, T2]> C_4 (C_2)^2 PP       ...

 Created temp and out of memory
 DANGER DANGER Will Robinson

 Your memory requirements were underestimated.  Please be more careful! 
  Done. Timing        0.001619 s
    Computing <[V, T2]> C_4 (C_2)^2 PH       ...

 Created temp and out of memory
 DANGER DANGER Will Robinson

 Your memory requirements were underestimated.  Please be more careful! 
  Done. Timing        0.006180 s
    Computing <[V, T2]> C_6 C_2              ...  Done. Timing        0.001696 s

  ==> Excitation Amplitudes Summary <==

    Active Indices:   50   51 
    Largest T1 amplitudes for spin case A:
       i       a                  i       a                  i       a               
    --------------------------------------------------------------------------------
    [ 51     164    ] 0.030605 [ 51      80    ]-0.030588 [ 51      91    ] 0.025635 
    [ 51     152    ] 0.022940 [ 51      92    ]-0.022084 [ 51     139    ]-0.019962 
    [ 51     182    ] 0.013204 [ 51     172    ] 0.012857 [ 44      50    ] 0.003153 
    [ 51     110    ] 0.003147 [ 51     113    ]-0.002074 [ 50      80    ]-0.001195 
    [ 50     113    ] 0.001094 [ 51     125    ]-0.000924 [ 51      81    ]-0.000911 
    --------------------------------------------------------------------------------
    Norm of T1A vector: (nonzero elements: 8465)                  0.065672026989325.
    --------------------------------------------------------------------------------
    Largest T1 amplitudes for spin case B:
       _       _                  _       _                  _       _               
       i       a                  i       a                  i       a               
    --------------------------------------------------------------------------------
    [ 51     164    ] 0.030605 [ 51      80    ]-0.030588 [ 51      91    ] 0.025635 
    [ 51     152    ] 0.022940 [ 51      92    ]-0.022084 [ 51     139    ]-0.019962 
    [ 51     182    ] 0.013204 [ 51     172    ] 0.012857 [ 44      50    ] 0.003153 
    [ 51     110    ] 0.003147 [ 51     113    ]-0.002074 [ 50      80    ]-0.001195 
    [ 50     113    ] 0.001094 [ 51     125    ]-0.000924 [ 51      81    ]-0.000911 
    --------------------------------------------------------------------------------
    Norm of T1B vector: (nonzero elements: 8465)                  0.065672026989326.
    --------------------------------------------------------------------------------
    Largest T2 amplitudes for spin case AA:
       i   j   a   b              i   j   a   b              i   j   a   b           
    --------------------------------------------------------------------------------
    [ 34  51  51  54]-0.020637 [ 41  51  51  63] 0.018942 [ 34  50  50  54]-0.016982 
    [ 41  50  50  63] 0.016323 [ 50  51  53 129] 0.015840 [ 39  51  51  62]-0.015819 
    [ 37  51  51  58]-0.015776 [ 40  50  50  53]-0.015593 [ 39  50  50  62]-0.014751 
    [ 37  50  50  58]-0.014169 [ 44  51  51  92] 0.013246 [ 49  51  51  93] 0.012783 
    [ 37  51  53  73] 0.012723 [ 37  40  50  73] 0.012482 [ 50  51  53 122]-0.011975 
    --------------------------------------------------------------------------------
    Norm of T2AA vector: (nonzero elements: 55615884)             0.653019810404133.
    --------------------------------------------------------------------------------
    Largest T2 amplitudes for spin case AB:
           _       _                  _       _                  _       _           
       i   j   a   b              i   j   a   b              i   j   a   b           
    --------------------------------------------------------------------------------
    [ 48  48  52  52]-0.029961 [ 50  50  53  53]-0.028827 [ 43  43  56  56]-0.026250 
    [ 51  51  53  53] 0.024544 [ 38  38  56  56]-0.023216 [ 30  30  56  56]-0.021224 
    [ 38  38  52  52]-0.021163 [ 50  50  50  80]-0.019775 [ 48  48  61  61]-0.018975 
    [ 38  38  61  61]-0.018642 [ 40  40  51  51]-0.017880 [ 38  38  52  61] 0.017356 
    [ 51  51  96  96]-0.017117 [ 40  40  53  53]-0.016841 [ 23  23  50  50]-0.016609 
    --------------------------------------------------------------------------------
    Norm of T2AB vector: (nonzero elements: 47813132)             0.713994092300721.
    --------------------------------------------------------------------------------
    Largest T2 amplitudes for spin case BB:
       _   _   _   _              _   _   _   _              _   _   _   _           
       i   j   a   b              i   j   a   b              i   j   a   b           
    --------------------------------------------------------------------------------
    [ 34  51  51  54]-0.020637 [ 41  51  51  63] 0.018942 [ 34  50  50  54]-0.016982 
    [ 41  50  50  63] 0.016323 [ 50  51  53 129] 0.015840 [ 39  51  51  62]-0.015819 
    [ 37  51  51  58]-0.015776 [ 40  50  50  53]-0.015593 [ 39  50  50  62]-0.014751 
    [ 37  50  50  58]-0.014169 [ 44  51  51  92] 0.013246 [ 49  51  51  93] 0.012783 
    [ 37  51  53  73] 0.012723 [ 37  40  50  73] 0.012482 [ 50  51  53 122]-0.011975 
    --------------------------------------------------------------------------------
    Norm of T2BB vector: (nonzero elements: 55615884)             0.653019810404133.
    --------------------------------------------------------------------------------

  ==> Possible Intruders <==

    T1 amplitudes larger than 0.1000 for spin case A: NULL
    T1 amplitudes larger than 0.1000 for spin case B: NULL
    T2 amplitudes larger than 0.1000 for spin case AA: NULL
    T2 amplitudes larger than 0.1000 for spin case AB: NULL
    T2 amplitudes larger than 0.1000 for spin case BB: NULL

  ==> DSRG-MRPT2 Energy Summary <==

    E0 (reference)                 =  -1450.049863078721046
    <[F, T1]>                      =     -0.000352639043592
    <[F, T2]>                      =      0.000563959166769
    <[V, T1]>                      =      0.000264003555135
    <[V, T2]> (C_2)^4              =     -1.855728691311985
    <[V, T2]> C_4 (C_2)^2 HH       =      0.000844671845008
    <[V, T2]> C_4 (C_2)^2 PP       =      0.001921935588102
    <[V, T2]> C_4 (C_2)^2 PH       =      0.001854537742307
    <[V, T2]> C_6 C_2              =     -0.000053289371537
    <[V, T2]>                      =     -1.851160835508105
    DSRG-MRPT2 correlation energy  =     -1.850685511829792
    DSRG-MRPT2 total energy        =  -1451.900548590550898
    max(T1)                        =      0.030604695592032
    max(T2)                        =      0.029960822050296
    ||T1||                         =      0.092874271236836
    ||T2||                         =      1.700594014137949

  Energy took     35.908 s


 Created C1 and out of memory
 DANGER DANGER Will Robinson

 Your memory requirements were underestimated.  Please be more careful! 


 Created C2 and out of memory
 DANGER DANGER Will Robinson

 Your memory requirements were underestimated.  Please be more careful! 


  ==> De-Normal-Order DSRG Transformed Hamiltonian <==

    Computing the scalar term                ... Done. Timing    0.000 s
    Computing the 1-body term                ... Done. Timing    0.000 s

  ==> Rotate DSRG Transformed Hamiltonian back to Original Basis <==

    Rotating 1-body term to original basis   ... Done. Timing    0.000 s
    Rotating 2-body term to original basis   ... Done. Timing    0.002 s

  ==> De-Normal-Order DSRG Transformed Hamiltonian <==

    Computing the scalar term                ... Done. Timing    0.000 s
    Computing the 1-body term                ... Done. Timing    0.000 s

  ==> Rotate DSRG Transformed Hamiltonian back to Original Basis <==

    Rotating 1-body term to original basis   ... Done. Timing    0.000 s
    Rotating 2-body term to original basis   ... Done. Timing    0.002 s

  ==> String Lists <==

  Number of alpha electrons     = 1
  Number of beta electrons      = 1
  Number of alpha strings       = 2
  Number of beta strings        = 2
  Timing for strings        =      0.000 s
  Timing for NN strings     =      0.000 s
  Timing for VO strings     =      0.000 s
  Timing for OO strings     =      0.000 s
  Timing for VVOO strings   =      0.000 s
  Timing for VOVO strings   =      0.000 s
  Timing for 1-hole strings =      0.000 s
  Timing for 2-hole strings =      0.000 s
  Timing for 3-hole strings =      0.000 s
  Total timing              =      0.000 s

  ==> FCI Solver <==

    Number of determinants                           4
    Symmetry                                         0
    Multiplicity                                     1
    Number of roots                                  1
    Target root                                      0
    Trial vectors per root                          10

  Allocating memory for the Hamiltonian algorithm. Size: 2 x 2 x 2.   Memory: 0.000000 GB

  ==> FCI Initial Guess <==

  ---------------------------------------------
    Root            Energy     <S^2>   Spin
  ---------------------------------------------
      0    -1451.901670508644  0.000  singlet
      1    -1451.788893475651  2.000  triplet
      2    -1451.720403773825  0.000  singlet
      3    -1451.557230303192  0.000  singlet
  ---------------------------------------------
  Timing for initial guess  =      0.000 s

  Projecting out root 1

  ==> Diagonalizing Hamiltonian <==

  Energy   convergence: 1.00e-10
  Residual convergence: 1.00e-06
  -----------------------------------------------------
    Iter.      Avg. Energy       Delta_E     Res. Norm
  -----------------------------------------------------
      1    -1451.901670508644  -1.452e+03  +5.339e-13
      2    -1451.901670508644  +0.000e+00  +5.339e-13
  -----------------------------------------------------
  The Davidson-Liu algorithm converged in 3 iterations.

  ==> Root No. 0 <==

    20      0.99141143
    02     -0.12535040

    Total Energy:   -1451.901670508644, <S^2>: 0.000000

  ==> Energy Summary <==

    Multi.(2ms)  Irrep.  No.               Energy      <S^2>
    --------------------------------------------------------
       1  (  0)     A     0    -1451.901670508644   0.000000
    --------------------------------------------------------

  ==> Computing RDMs for Root No. 0 <==

    Timing for 1-RDM: 0.000 s

  ==> NATURAL ORBITALS <==

        1A      1.968262      2A      0.031738  

  Orbital rotations on spin-free RDMs ...
    Transformed 1 RDMs.

  ==> Permanent Dipole Moments [e a0] for Singlet (Ms = 0) A <==

       State           DM_X           DM_Y           DM_Z           |DM|
    --------------------------------------------------------------------
          0A    -0.00116275     1.86712251     0.00188024     1.86712382
    --------------------------------------------------------------------

  => DSRG-MRPT2 Reference Relaxation Energy Summary <=

                         Fixed Ref. (a.u.)              Relaxed Ref. (a.u.)
           -------------------------------  -------------------------------
    Iter.          Total Energy      Delta          Total Energy      Delta
    -----------------------------------------------------------------------
        1    -1451.900548590551 -1.452e+03    -1451.901670508644 -1.452e+03
    -----------------------------------------------------------------------

  ==> Total Timings (s) for Computing Commutators <==

             [H1, T1]    [H1, T2]    [H2, T1]    [H2, T2]
    -----------------------------------------------------
    -> C0       0.000       0.001       0.001       1.699
    -> C1       0.000       0.002       0.001       0.113
    -> C2                   0.001       0.001       0.011
    -----------------------------------------------------


  Time to prepare integrals:        8.074 seconds
  Time to run job          :       60.045 seconds
  Total                    :       68.120 seconds

    Psi4 stopped on: Wednesday, 09 November 2022 03:06PM
    Psi4 wall time for execution: 0:07:48.19

*** Psi4 exiting successfully. Buy a developer a beer!
