[Molden Format]
[N_Atoms]
                    2
[Atoms] (AU)
N1          1      7           0.00000000      0.00000000      0.00000000
N2          2      7           0.00000000      0.00000000      6.04712360
[5D]
[7F]
[Charge] (Mulliken)
   0.0000000000000000     
   0.0000000000000000     
[GTO] (AU)
   1
   s  10
  1.142000000E+04  5.229996559E-04
  1.712000000E+03  4.044997339E-03
  3.893000000E+02  2.077498633E-02
  1.100000000E+02  8.072694689E-02
  3.557000000E+01  2.330738467E-01
  1.254000000E+01  4.335007148E-01
  4.644000000E+00  3.474717714E-01
  1.293000000E+00  4.126197285E-02
  5.118000000E-01 -8.507994403E-03
  1.787000000E-01  2.383998432E-03
   s  10
  1.142000000E+04 -1.149999544E-04
  1.712000000E+03 -8.949996452E-04
  3.893000000E+02 -4.623998167E-03
  1.100000000E+02 -1.852799265E-02
  3.557000000E+01 -5.733897727E-02
  1.254000000E+01 -1.320759476E-01
  4.644000000E+00 -1.725099316E-01
  1.293000000E+00  1.518139398E-01
  5.118000000E-01  5.999437621E-01
  1.787000000E-01  3.874618464E-01
   s   1
  1.293000000E+00  1.000000000E+00
   s   1
  1.787000000E-01  1.000000000E+00
   p   5
  2.663000000E+01  1.467000345E-02
  5.948000000E+00  9.176402155E-02
  1.742000000E+00  2.986830701E-01
  5.550000000E-01  4.984871171E-01
  1.725000000E-01  3.370230791E-01
   p   1
  5.550000000E-01  1.000000000E+00
   p   1
  1.725000000E-01  1.000000000E+00
   d   1
  1.654000000E+00  1.000000000E+00
   d   1
  4.690000000E-01  1.000000000E+00
   f   1
  1.093000000E+00  1.000000000E+00
 
   2
   s  10
  1.142000000E+04  5.229996559E-04
  1.712000000E+03  4.044997339E-03
  3.893000000E+02  2.077498633E-02
  1.100000000E+02  8.072694689E-02
  3.557000000E+01  2.330738467E-01
  1.254000000E+01  4.335007148E-01
  4.644000000E+00  3.474717714E-01
  1.293000000E+00  4.126197285E-02
  5.118000000E-01 -8.507994403E-03
  1.787000000E-01  2.383998432E-03
   s  10
  1.142000000E+04 -1.149999544E-04
  1.712000000E+03 -8.949996452E-04
  3.893000000E+02 -4.623998167E-03
  1.100000000E+02 -1.852799265E-02
  3.557000000E+01 -5.733897727E-02
  1.254000000E+01 -1.320759476E-01
  4.644000000E+00 -1.725099316E-01
  1.293000000E+00  1.518139398E-01
  5.118000000E-01  5.999437621E-01
  1.787000000E-01  3.874618464E-01
   s   1
  1.293000000E+00  1.000000000E+00
   s   1
  1.787000000E-01  1.000000000E+00
   p   5
  2.663000000E+01  1.467000345E-02
  5.948000000E+00  9.176402155E-02
  1.742000000E+00  2.986830701E-01
  5.550000000E-01  4.984871171E-01
  1.725000000E-01  3.370230791E-01
   p   1
  5.550000000E-01  1.000000000E+00
   p   1
  1.725000000E-01  1.000000000E+00
   d   1
  1.654000000E+00  1.000000000E+00
   d   1
  4.690000000E-01  1.000000000E+00
   f   1
  1.093000000E+00  1.000000000E+00
 
[MO]
Sym=     1a  
Ene=   -15.6340
Spin= Alpha
Occup=    2.00000
   1         0.70768441
   2         0.00343766
   3        -0.00165270
   4         0.00194499
   5         0.00000000
   6         0.00000000
   7         0.00002207
   8         0.00000000
   9        -0.00000000
  10        -0.00000039
  11        -0.00000000
  12        -0.00000000
  13        -0.00000103
  14        -0.00000000
  15        -0.00000000
  16         0.00000000
  17        -0.00000000
  18         0.00000000
  19        -0.00000000
  20         0.00000000
  21        -0.00000000
  22         0.00000000
  23         0.00000000
  24        -0.00000000
  25         0.00000000
  26         0.00000000
  27        -0.00000000
  28        -0.00000000
  29         0.00000000
  30         0.00000000
  31         0.70768441
  32         0.00343766
  33        -0.00165270
  34         0.00194499
  35        -0.00000000
  36         0.00000000
  37        -0.00002207
  38        -0.00000000
  39        -0.00000000
  40         0.00000039
  41         0.00000000
  42         0.00000000
  43         0.00000103
  44        -0.00000000
  45        -0.00000000
  46         0.00000000
  47        -0.00000000
  48        -0.00000000
  49         0.00000000
  50         0.00000000
  51        -0.00000000
  52         0.00000000
  53         0.00000000
  54        -0.00000000
  55        -0.00000000
  56         0.00000000
  57        -0.00000000
  58        -0.00000000
  59        -0.00000000
  60        -0.00000000
Sym=     2a  
Ene=   -15.6340
Spin= Alpha
Occup=    2.00000
   1        -0.70768879
   2        -0.00341604
   3         0.00165293
   4        -0.00194488
   5         0.00000000
   6        -0.00000000
   7         0.00002199
   8        -0.00000000
   9         0.00000000
  10        -0.00000038
  11        -0.00000000
  12         0.00000000
  13        -0.00000102
  14         0.00000000
  15         0.00000000
  16        -0.00000000
  17         0.00000000
  18         0.00000000
  19        -0.00000000
  20        -0.00000000
  21         0.00000000
  22        -0.00000000
  23        -0.00000000
  24        -0.00000000
  25         0.00000000
  26        -0.00000000
  27        -0.00000000
  28         0.00000000
  29         0.00000000
  30        -0.00000000
  31         0.70768879
  32         0.00341604
  33        -0.00165293
  34         0.00194488
  35         0.00000000
  36        -0.00000000
  37         0.00002199
  38        -0.00000000
  39         0.00000000
  40        -0.00000038
  41         0.00000000
  42         0.00000000
  43        -0.00000102
  44        -0.00000000
  45         0.00000000
  46         0.00000000
  47         0.00000000
  48        -0.00000000
  49        -0.00000000
  50        -0.00000000
  51         0.00000000
  52        -0.00000000
  53         0.00000000
  54         0.00000000
  55        -0.00000000
  56        -0.00000000
  57        -0.00000000
  58         0.00000000
  59         0.00000000
  60         0.00000000
Sym=     3a  
Ene=    -0.9543
Spin= Alpha
Occup=    2.00000
   1        -0.00873524
   2         0.69488104
   3         0.00698501
   4         0.00401260
   5        -0.00000000
   6        -0.00000000
   7         0.02356687
   8         0.00000000
   9         0.00000000
  10        -0.00041153
  11         0.00000000
  12         0.00000000
  13        -0.00109697
  14        -0.00000000
  15        -0.00000000
  16         0.00000000
  17         0.00000000
  18         0.00000000
  19         0.00000000
  20        -0.00000000
  21        -0.00000000
  22        -0.00000000
  23         0.00000000
  24         0.00000000
  25        -0.00000000
  26        -0.00000000
  27         0.00000000
  28         0.00000000
  29        -0.00000000
  30         0.00000000
  31        -0.00873524
  32         0.69488104
  33         0.00698501
  34         0.00401260
  35        -0.00000000
  36        -0.00000000
  37        -0.02356687
  38         0.00000000
  39         0.00000000
  40         0.00041153
  41        -0.00000000
  42         0.00000000
  43         0.00109697
  44         0.00000000
  45         0.00000000
  46        -0.00000000
  47         0.00000000
  48         0.00000000
  49        -0.00000000
  50         0.00000000
  51        -0.00000000
  52        -0.00000000
  53        -0.00000000
  54        -0.00000000
  55        -0.00000000
  56        -0.00000000
  57         0.00000000
  58         0.00000000
  59         0.00000000
  60         0.00000000
Sym=     4a  
Ene=    -0.9375
Spin= Alpha
Occup=    2.00000
   1         0.00844936
   2        -0.70117523
   3        -0.00704741
   4        -0.00404994
   5        -0.00000000
   6         0.00000000
   7         0.02218196
   8        -0.00000000
   9         0.00000000
  10        -0.00038735
  11         0.00000000
  12        -0.00000000
  13        -0.00103251
  14        -0.00000000
  15        -0.00000000
  16        -0.00000000
  17         0.00000000
  18         0.00000000
  19        -0.00000000
  20         0.00000000
  21         0.00000000
  22         0.00000000
  23        -0.00000000
  24         0.00000000
  25        -0.00000000
  26         0.00000000
  27         0.00000000
  28        -0.00000000
  29        -0.00000000
  30         0.00000000
  31        -0.00844936
  32         0.70117523
  33         0.00704741
  34         0.00404994
  35         0.00000000
  36         0.00000000
  37         0.02218196
  38         0.00000000
  39        -0.00000000
  40        -0.00038735
  41        -0.00000000
  42         0.00000000
  43        -0.00103251
  44        -0.00000000
  45        -0.00000000
  46         0.00000000
  47         0.00000000
  48        -0.00000000
  49         0.00000000
  50         0.00000000
  51        -0.00000000
  52         0.00000000
  53         0.00000000
  54        -0.00000000
  55         0.00000000
  56         0.00000000
  57         0.00000000
  58        -0.00000000
  59        -0.00000000
  60        -0.00000000
Sym=     5a  
Ene=    -0.5915
Spin= Alpha
Occup=    2.00000
   1         0.00011036
   2         0.03613852
   3         0.00036192
   4         0.00021022
   5         0.00000000
   6        -0.00000000
   7        -0.73120986
   8        -0.00000000
   9        -0.00000000
  10         0.01276869
  11        -0.00000000
  12        -0.00000000
  13         0.03403587
  14         0.00000000
  15        -0.00000000
  16        -0.00000000
  17        -0.00000000
  18         0.00000000
  19         0.00000000
  20        -0.00000000
  21         0.00000000
  22         0.00000000
  23         0.00000000
  24        -0.00000000
  25        -0.00000000
  26         0.00000000
  27        -0.00000000
  28         0.00000000
  29         0.00000000
  30         0.00000000
  31         0.00011036
  32         0.03613852
  33         0.00036192
  34         0.00021022
  35        -0.00000000
  36         0.00000000
  37         0.73120986
  38         0.00000000
  39        -0.00000000
  40        -0.01276869
  41         0.00000000
  42        -0.00000000
  43        -0.03403587
  44        -0.00000000
  45        -0.00000000
  46         0.00000000
  47        -0.00000000
  48         0.00000000
  49        -0.00000000
  50         0.00000000
  51        -0.00000000
  52         0.00000000
  53        -0.00000000
  54         0.00000000
  55         0.00000000
  56         0.00000000
  57        -0.00000000
  58        -0.00000000
  59        -0.00000000
  60        -0.00000000
Sym=     6a  
Ene=    -0.5739
Spin= Alpha
Occup=    1.00000
   1         0.00000000
   2         0.00000000
   3        -0.00000000
   4        -0.00000000
   5        -0.00070108
   6         0.74291478
   7        -0.00000000
   8         0.00001224
   9        -0.01297308
  10         0.00000000
  11         0.00003263
  12        -0.03458070
  13         0.00000000
  14        -0.00000000
  15         0.00000000
  16         0.00000000
  17         0.00000000
  18        -0.00000000
  19        -0.00000000
  20        -0.00000000
  21        -0.00000000
  22        -0.00000000
  23         0.00000000
  24         0.00000000
  25         0.00000000
  26        -0.00000000
  27        -0.00000000
  28         0.00000000
  29         0.00000000
  30         0.00000000
  31         0.00000000
  32         0.00000000
  33        -0.00000000
  34        -0.00000000
  35        -0.00070108
  36         0.74291478
  37        -0.00000000
  38         0.00001224
  39        -0.01297308
  40        -0.00000000
  41         0.00003263
  42        -0.03458070
  43         0.00000000
  44         0.00000000
  45         0.00000000
  46        -0.00000000
  47         0.00000000
  48        -0.00000000
  49        -0.00000000
  50        -0.00000000
  51        -0.00000000
  52        -0.00000000
  53         0.00000000
  54         0.00000000
  55        -0.00000000
  56        -0.00000000
  57         0.00000000
  58        -0.00000000
  59         0.00000000
  60        -0.00000000
Sym=     7a  
Ene=    -0.5739
Spin= Alpha
Occup=    1.00000
   1         0.00000000
   2        -0.00000000
   3         0.00000000
   4         0.00000000
   5         0.74291478
   6         0.00070108
   7         0.00000000
   8        -0.01297308
   9        -0.00001224
  10         0.00000000
  11        -0.03458070
  12        -0.00003263
  13        -0.00000000
  14        -0.00000000
  15        -0.00000000
  16        -0.00000000
  17        -0.00000000
  18        -0.00000000
  19         0.00000000
  20         0.00000000
  21        -0.00000000
  22        -0.00000000
  23         0.00000000
  24        -0.00000000
  25        -0.00000000
  26        -0.00000000
  27        -0.00000000
  28         0.00000000
  29         0.00000000
  30         0.00000000
  31         0.00000000
  32         0.00000000
  33        -0.00000000
  34         0.00000000
  35         0.74291478
  36         0.00070108
  37        -0.00000000
  38        -0.01297308
  39        -0.00001224
  40        -0.00000000
  41        -0.03458070
  42        -0.00003263
  43         0.00000000
  44        -0.00000000
  45        -0.00000000
  46        -0.00000000
  47         0.00000000
  48        -0.00000000
  49        -0.00000000
  50         0.00000000
  51        -0.00000000
  52         0.00000000
  53         0.00000000
  54        -0.00000000
  55        -0.00000000
  56         0.00000000
  57        -0.00000000
  58         0.00000000
  59        -0.00000000
  60        -0.00000000
Sym=     8a  
Ene=    -0.5673
Spin= Alpha
Occup=    1.00000
   1        -0.00000000
   2         0.00000000
   3         0.00000000
   4         0.00000000
   5         0.00008716
   6        -0.74727705
   7         0.00000000
   8        -0.00000152
   9         0.01304926
  10        -0.00000000
  11        -0.00000406
  12         0.03478375
  13        -0.00000000
  14         0.00000000
  15        -0.00000000
  16        -0.00000000
  17        -0.00000000
  18        -0.00000000
  19         0.00000000
  20         0.00000000
  21         0.00000000
  22         0.00000000
  23         0.00000000
  24         0.00000000
  25        -0.00000000
  26         0.00000000
  27        -0.00000000
  28        -0.00000000
  29         0.00000000
  30         0.00000000
  31         0.00000000
  32        -0.00000000
  33         0.00000000
  34        -0.00000000
  35        -0.00008716
  36         0.74727705
  37         0.00000000
  38         0.00000152
  39        -0.01304926
  40        -0.00000000
  41         0.00000406
  42        -0.03478375
  43        -0.00000000
  44         0.00000000
  45        -0.00000000
  46        -0.00000000
  47         0.00000000
  48        -0.00000000
  49        -0.00000000
  50         0.00000000
  51         0.00000000
  52        -0.00000000
  53        -0.00000000
  54         0.00000000
  55         0.00000000
  56        -0.00000000
  57        -0.00000000
  58        -0.00000000
  59        -0.00000000
  60         0.00000000
Sym=     9a  
Ene=    -0.5673
Spin= Alpha
Occup=    1.00000
   1        -0.00000000
   2        -0.00000000
   3         0.00000000
   4         0.00000000
   5        -0.74727705
   6        -0.00008716
   7        -0.00000000
   8         0.01304926
   9         0.00000152
  10         0.00000000
  11         0.03478375
  12         0.00000406
  13         0.00000000
  14        -0.00000000
  15        -0.00000000
  16        -0.00000000
  17         0.00000000
  18        -0.00000000
  19         0.00000000
  20         0.00000000
  21         0.00000000
  22        -0.00000000
  23         0.00000000
  24        -0.00000000
  25        -0.00000000
  26         0.00000000
  27         0.00000000
  28        -0.00000000
  29         0.00000000
  30        -0.00000000
  31         0.00000000
  32         0.00000000
  33        -0.00000000
  34         0.00000000
  35         0.74727705
  36         0.00008716
  37         0.00000000
  38        -0.01304926
  39        -0.00000152
  40        -0.00000000
  41        -0.03478375
  42        -0.00000406
  43        -0.00000000
  44         0.00000000
  45         0.00000000
  46         0.00000000
  47         0.00000000
  48        -0.00000000
  49        -0.00000000
  50        -0.00000000
  51        -0.00000000
  52        -0.00000000
  53         0.00000000
  54        -0.00000000
  55        -0.00000000
  56        -0.00000000
  57         0.00000000
  58        -0.00000000
  59        -0.00000000
  60         0.00000000
Sym=    10a  
Ene=    -0.5485
Spin= Alpha
Occup=    0.00000
   1         0.00016228
   2         0.03500748
   3         0.00035046
   4         0.00020379
   5        -0.00000000
   6         0.00000000
   7         0.75935757
   8         0.00000000
   9        -0.00000000
  10        -0.01326021
  11         0.00000000
  12        -0.00000000
  13        -0.03534607
  14         0.00000000
  15         0.00000000
  16         0.00000000
  17         0.00000000
  18         0.00000000
  19         0.00000000
  20        -0.00000000
  21        -0.00000000
  22         0.00000000
  23        -0.00000000
  24        -0.00000000
  25        -0.00000000
  26         0.00000000
  27        -0.00000000
  28         0.00000000
  29         0.00000000
  30         0.00000000
  31        -0.00016228
  32        -0.03500748
  33        -0.00035046
  34        -0.00020379
  35        -0.00000000
  36         0.00000000
  37         0.75935757
  38         0.00000000
  39        -0.00000000
  40        -0.01326021
  41         0.00000000
  42        -0.00000000
  43        -0.03534607
  44         0.00000000
  45         0.00000000
  46        -0.00000000
  47         0.00000000
  48        -0.00000000
  49         0.00000000
  50        -0.00000000
  51         0.00000000
  52        -0.00000000
  53        -0.00000000
  54         0.00000000
  55        -0.00000000
  56         0.00000000
  57        -0.00000000
  58        -0.00000000
  59         0.00000000
  60         0.00000000
Sym=    11a  
Ene=     3.9779
Spin= Alpha
Occup=    0.00000
   1        -0.00000000
   2        -0.00000000
   3         0.00000000
   4         0.00000000
   5        -0.00175760
   6         0.09987713
   7        -0.00000000
   8         0.01408518
   9        -0.80040220
  10         0.00000000
  11        -0.01557948
  12         0.88531716
  13        -0.00000000
  14        -0.00000000
  15         0.00007997
  16        -0.00454450
  17        -0.00000000
  18         0.00000000
  19         0.00000000
  20        -0.00050550
  21         0.02872534
  22         0.00000000
  23         0.00000000
  24         0.00000000
  25        -0.00001390
  26         0.00078971
  27        -0.00000000
  28        -0.00000000
  29        -0.00000000
  30        -0.00000000
  31        -0.00000000
  32        -0.00000000
  33        -0.00000000
  34         0.00000000
  35        -0.00175760
  36         0.09987713
  37        -0.00000000
  38         0.01408518
  39        -0.80040220
  40         0.00000000
  41        -0.01557948
  42         0.88531716
  43        -0.00000000
  44         0.00000000
  45        -0.00007997
  46         0.00454450
  47        -0.00000000
  48         0.00000000
  49        -0.00000000
  50         0.00050550
  51        -0.02872534
  52         0.00000000
  53        -0.00000000
  54         0.00000000
  55        -0.00001390
  56         0.00078971
  57        -0.00000000
  58         0.00000000
  59        -0.00000000
  60        -0.00000000
Sym=    12a  
Ene=     3.9779
Spin= Alpha
Occup=    0.00000
   1         0.00000000
   2         0.00000000
   3        -0.00000000
   4        -0.00000000
   5         0.09987713
   6         0.00175760
   7        -0.00000000
   8        -0.80040220
   9        -0.01408518
  10         0.00000000
  11         0.88531716
  12         0.01557948
  13        -0.00000000
  14         0.00000000
  15        -0.00454450
  16        -0.00007997
  17        -0.00000000
  18         0.00000000
  19        -0.00000000
  20         0.02872534
  21         0.00050550
  22         0.00000000
  23        -0.00000000
  24        -0.00000000
  25         0.00078971
  26         0.00001390
  27         0.00000000
  28        -0.00000000
  29         0.00000000
  30         0.00000000
  31         0.00000000
  32         0.00000000
  33        -0.00000000
  34        -0.00000000
  35         0.09987713
  36         0.00175760
  37         0.00000000
  38        -0.80040220
  39        -0.01408518
  40        -0.00000000
  41         0.88531716
  42         0.01557948
  43         0.00000000
  44         0.00000000
  45         0.00454450
  46         0.00007997
  47         0.00000000
  48         0.00000000
  49        -0.00000000
  50        -0.02872534
  51        -0.00050550
  52        -0.00000000
  53        -0.00000000
  54         0.00000000
  55         0.00078971
  56         0.00001390
  57        -0.00000000
  58        -0.00000000
  59         0.00000000
  60         0.00000000
Sym=    13a  
Ene=     3.9970
Spin= Alpha
Occup=    0.00000
   1         0.07085719
   2         0.26260489
   3        -0.06969033
   4        -0.19048807
   5        -0.00000000
   6         0.00000000
   7        -0.08878053
   8         0.00000000
   9        -0.00000000
  10         0.76900794
  11        -0.00000000
  12         0.00000000
  13        -0.78124670
  14         0.00994382
  15        -0.00000000
  16        -0.00000000
  17        -0.00000000
  18         0.00000000
  19        -0.06661829
  20        -0.00000000
  21         0.00000000
  22         0.00000000
  23        -0.00000000
  24        -0.00137587
  25         0.00000000
  26         0.00000000
  27         0.00000000
  28        -0.00000000
  29        -0.00000000
  30         0.00000000
  31         0.07085719
  32         0.26260489
  33        -0.06969033
  34        -0.19048807
  35        -0.00000000
  36         0.00000000
  37         0.08878053
  38         0.00000000
  39        -0.00000000
  40        -0.76900794
  41        -0.00000000
  42         0.00000000
  43         0.78124670
  44         0.00994382
  45        -0.00000000
  46        -0.00000000
  47         0.00000000
  48        -0.00000000
  49        -0.06661829
  50         0.00000000
  51         0.00000000
  52        -0.00000000
  53         0.00000000
  54         0.00137587
  55        -0.00000000
  56         0.00000000
  57         0.00000000
  58         0.00000000
  59         0.00000000
  60         0.00000000
Sym=    14a  
Ene=     4.0438
Spin= Alpha
Occup=    0.00000
   1         0.00000000
   2         0.00000000
   3        -0.00000000
   4        -0.00000000
   5         0.02697915
   6        -0.09538549
   7         0.00000000
   8        -0.22288483
   9         0.78801508
  10        -0.00000000
  11         0.25824763
  12        -0.91304117
  13         0.00000000
  14         0.00000000
  15         0.00150777
  16        -0.00533077
  17         0.00000000
  18        -0.00000000
  19        -0.00000000
  20        -0.00975786
  21         0.03449916
  22        -0.00000000
  23         0.00000000
  24        -0.00000000
  25        -0.00024469
  26         0.00086509
  27         0.00000000
  28         0.00000000
  29         0.00000000
  30         0.00000000
  31        -0.00000000
  32        -0.00000000
  33         0.00000000
  34         0.00000000
  35        -0.02697915
  36         0.09538549
  37         0.00000000
  38         0.22288483
  39        -0.78801508
  40        -0.00000000
  41        -0.25824763
  42         0.91304117
  43         0.00000000
  44        -0.00000000
  45         0.00150777
  46        -0.00533077
  47        -0.00000000
  48        -0.00000000
  49         0.00000000
  50        -0.00975786
  51         0.03449916
  52         0.00000000
  53         0.00000000
  54        -0.00000000
  55         0.00024469
  56        -0.00086509
  57         0.00000000
  58         0.00000000
  59        -0.00000000
  60        -0.00000000
Sym=    15a  
Ene=     4.0438
Spin= Alpha
Occup=    0.00000
   1        -0.00000000
   2        -0.00000000
   3         0.00000000
   4         0.00000000
   5        -0.09538549
   6        -0.02697915
   7        -0.00000000
   8         0.78801508
   9         0.22288483
  10         0.00000000
  11        -0.91304117
  12        -0.25824763
  13        -0.00000000
  14        -0.00000000
  15        -0.00533077
  16        -0.00150777
  17        -0.00000000
  18         0.00000000
  19         0.00000000
  20         0.03449916
  21         0.00975786
  22        -0.00000000
  23        -0.00000000
  24         0.00000000
  25         0.00086509
  26         0.00024469
  27        -0.00000000
  28         0.00000000
  29        -0.00000000
  30         0.00000000
  31         0.00000000
  32         0.00000000
  33        -0.00000000
  34        -0.00000000
  35         0.09538549
  36         0.02697915
  37        -0.00000000
  38        -0.78801508
  39        -0.22288483
  40         0.00000000
  41         0.91304117
  42         0.25824763
  43        -0.00000000
  44         0.00000000
  45        -0.00533077
  46        -0.00150777
  47        -0.00000000
  48         0.00000000
  49        -0.00000000
  50         0.03449916
  51         0.00975786
  52         0.00000000
  53        -0.00000000
  54         0.00000000
  55        -0.00086509
  56        -0.00024469
  57         0.00000000
  58         0.00000000
  59         0.00000000
  60        -0.00000000
Sym=    16a  
Ene=     4.0805
Spin= Alpha
Occup=    0.00000
   1         0.15640993
   2         0.57516200
   3        -0.13982329
   4        -0.47803457
   5        -0.00000000
   6         0.00000000
   7         0.10154405
   8         0.00000000
   9        -0.00000000
  10        -0.80578631
  11        -0.00000000
  12         0.00000000
  13         1.01940196
  14         0.01484349
  15        -0.00000000
  16         0.00000000
  17         0.00000000
  18        -0.00000000
  19        -0.10169451
  20         0.00000000
  21        -0.00000000
  22        -0.00000000
  23         0.00000000
  24        -0.00173468
  25         0.00000000
  26        -0.00000000
  27        -0.00000000
  28         0.00000000
  29        -0.00000000
  30        -0.00000000
  31        -0.15640993
  32        -0.57516200
  33         0.13982329
  34         0.47803457
  35         0.00000000
  36        -0.00000000
  37         0.10154405
  38        -0.00000000
  39         0.00000000
  40        -0.80578631
  41         0.00000000
  42        -0.00000000
  43         1.01940196
  44        -0.01484349
  45        -0.00000000
  46         0.00000000
  47         0.00000000
  48         0.00000000
  49         0.10169451
  50         0.00000000
  51        -0.00000000
  52        -0.00000000
  53         0.00000000
  54        -0.00173468
  55        -0.00000000
  56         0.00000000
  57         0.00000000
  58         0.00000000
  59         0.00000000
  60        -0.00000000
Sym=    17a  
Ene=     4.3479
Spin= Alpha
Occup=    0.00000
   1        -0.61017486
   2        -2.23623727
   3         0.48646231
   4         2.11169495
   5         0.00000000
   6         0.00000000
   7        -0.01384203
   8        -0.00000000
   9         0.00000000
  10         0.14513460
  11         0.00000000
  12        -0.00000000
  13        -0.19998275
  14        -0.01561880
  15         0.00000000
  16         0.00000000
  17         0.00000000
  18        -0.00000000
  19         0.11327492
  20         0.00000000
  21        -0.00000000
  22        -0.00000000
  23         0.00000000
  24         0.00105315
  25         0.00000000
  26         0.00000000
  27        -0.00000000
  28        -0.00000000
  29         0.00000000
  30         0.00000000
  31        -0.61017486
  32        -2.23623727
  33         0.48646231
  34         2.11169495
  35        -0.00000000
  36        -0.00000000
  37         0.01384203
  38        -0.00000000
  39         0.00000000
  40        -0.14513460
  41        -0.00000000
  42        -0.00000000
  43         0.19998275
  44        -0.01561880
  45         0.00000000
  46        -0.00000000
  47         0.00000000
  48        -0.00000000
  49         0.11327492
  50        -0.00000000
  51         0.00000000
  52        -0.00000000
  53         0.00000000
  54        -0.00105315
  55         0.00000000
  56        -0.00000000
  57        -0.00000000
  58        -0.00000000
  59        -0.00000000
  60        -0.00000000
Sym=    18a  
Ene=     4.4817
Spin= Alpha
Occup=    0.00000
   1        -0.52955122
   2        -1.94344350
   3         0.40826284
   4         1.88561826
   5         0.00000000
   6         0.00000000
   7         0.01286516
   8        -0.00000000
   9        -0.00000000
  10        -0.13816170
  11         0.00000000
  12         0.00000000
  13         0.22341793
  14         0.05176116
  15        -0.00000000
  16         0.00000000
  17         0.00000000
  18         0.00000000
  19        -0.40897808
  20         0.00000000
  21        -0.00000000
  22        -0.00000000
  23        -0.00000000
  24        -0.00168581
  25        -0.00000000
  26        -0.00000000
  27        -0.00000000
  28        -0.00000000
  29        -0.00000000
  30        -0.00000000
  31         0.52955122
  32         1.94344350
  33        -0.40826284
  34        -1.88561826
  35        -0.00000000
  36         0.00000000
  37         0.01286516
  38         0.00000000
  39        -0.00000000
  40        -0.13816170
  41        -0.00000000
  42         0.00000000
  43         0.22341793
  44        -0.05176116
  45         0.00000000
  46         0.00000000
  47        -0.00000000
  48         0.00000000
  49         0.40897808
  50        -0.00000000
  51        -0.00000000
  52         0.00000000
  53        -0.00000000
  54        -0.00168581
  55         0.00000000
  56        -0.00000000
  57         0.00000000
  58        -0.00000000
  59         0.00000000
  60        -0.00000000
Sym=    19a  
Ene=     4.5578
Spin= Alpha
Occup=    0.00000
   1         0.11375204
   2         0.41938093
   3        -0.08938498
   4        -0.39669761
   5        -0.00000000
   6        -0.00000000
   7        -0.00493425
   8        -0.00000000