   This run of MOLCAS is using the pymolcas driver

                             OPE
                             OPE          NMOL  CASOP  ENMOLC A   SO
                 OPE        NMOLC        AS  OP EN  MO LC     AS  OP
                OPENM       OL CA        SO  PE NM  OL CA     SOP EN
                OP EN      MO   LC       AS  OP ENMOL  CASO   PENMOL
                OP  EN     MO   LC       AS  OP EN     MO     LC ASO
               OP   E  NMOL  C  AS       OP  EN MO     LC     AS  OP
               OP  E   NMO   LC AS        OPEN  MO     LCASOP EN   M
               O  PEN   MO  LCA  SO
            OPE   NMO   L   CAS    OP
        OPENMOL  CASOP     ENMOL   CASOPE
     OPENMOLCA   SOPENMOLCASOPEN   MOLCASOPE
    OPENMOLCAS   OP           EN   MOL    CAS
    OPENMOLCAS       OP  ENM        O     LCA
    OPENMOLCAS    OPEN  MOLCASO     P  E  NMO
    OPENMOLCAS     OP               E  N  MOL
    OPENMOLCA   SO           PENM   O  L  CAS    OPEN    MO    LCAS
    OPENMOLCA   SOP           ENM   O  L  CAS   OP  EN  MOLC  AS   O
    OPENMOLCA   SOPE           NM      O  LCA   S      OP  EN MO
    OPENMOLC                AS         O  PEN   M      OL  CA  SOPE
    OPENMO        LCASOPE  NMOL        C  ASO   P      ENMOLC     AS
    OPE     NMO      LCA  SO     P     E   NM   OL  CA SO  PE N   MO
          OPENMOLCA            SOPE   NMO        LCAS  O    P  ENMO
     OPENMOLCASOPENMOLCASOPENMOLCASOPENMOLCA
        OPENMOLCASOPENMOLCASOPENMOLCASOPE
            OPENMOLCASOPENMOLCASOPENM
               OPENMOLCASOPENMOLCA        version: o822a959167d23c ?
                   OPENMOLCASO
                       OPE                tag:

 OpenMolcas is free software; you can redistribute it and/or modify it
 under the terms of the GNU Lesser General Public License version 2.1.
 OpenMolcas is distributed in the hope that it will be useful, but it
 is provided "as is" and without any express or implied warranties.
 For more details see the full text of the license in the file
 LICENSE or in <http://www.gnu.org/licenses/>.

                 Copyright (C) The OpenMolcas Authors
           For the author list and the recommended citation,
                   consult the file CONTRIBUTORS.md

           *************************************************
           * pymolcas version py2.28                       *
           *   build c4a6d18ded8cb6cad61d2372a9abd97c      *
           *   (after the EMIL interpreter by V. Veryazov) *
           *************************************************

configuration info
------------------
Host name: mgt (Linux)
C Compiler ID: GNU
C flags: -std=gnu99
Fortran Compiler ID: GNU
Fortran flags: -fno-aggressive-loop-optimizations -cpp -fdefault-integer-8 -fmax-stack-var-size=1048576
Definitions: _MOLCAS_;_I8_;_LINUX_
Parallel: OFF (GA=OFF)


   -------------------------------------------------------------------------------------------------------
  |
  |           Project: n2
  |    Submitted from: /public/home/xzzeng/work/HQC/N2/cc-pvtz/NO/PES/entropy/3.2/results/work_dir/n2/dmrg
  |      Scratch area: /public/home/xzzeng/work/HQC/N2/cc-pvtz/NO/PES/entropy/3.2/results/scratch
  |   Save outputs to: /public/home/xzzeng/work/HQC/N2/cc-pvtz/NO/PES/entropy/3.2/results/work_dir/n2/dmrg
  |            Molcas: /public/home/xzzeng/soft/OpenMolcas/build
  |
  | Scratch area is NOT empty
  |
  |    MOLCAS_DRIVER = /public/home/xzzeng/soft/OpenMolcas/build/pymolcas
  |    MOLCAS_NPROCS = 1
  |    MOLCAS_SOURCE = /public/home/xzzeng/soft/OpenMolcas
  | MOLCAS_STRUCTURE = 0
  |
   -------------------------------------------------------------------------------------------------------

++ ---------   Input file   ---------

&DMRGSCF
ActiveSpaceOptimizer = QCMaquis
DMRGSettings
  nsweeps = 5
  max_bond_dimension = 300
EndDMRGSettings
OOptimizationSettings
  SPIN    = 1
  NACTEL  = 10
  FILEORB = /public/home/xzzeng/work/HQC/N2/cc-pvtz/NO/PES/entropy/3.2/results/work_dir/n2/dmrg/n2.scf.h5_sel
  TYPEINDEX
  CIONLY
EndOOptimizationSettings

-- ----------------------------------

*** symbolic link created: INPORB -> n2.ScfOrb
--- Start Module: dmrgscf at Tue Apr  9 00:43:08 2024 ---

()()()()()()()()()()()()()()()()()()()()()()()()()()()()()()()()()()()()()()()()()()()()()()()()()()

                                              &DMRGSCF

                                   only a single process is used
                       available to each process: 12 GB of memory, 1 thread?
                                             pid: 62504
()()()()()()()()()()()()()()()()()()()()()()()()()()()()()()()()()()()()()()()()()()()()()()()()()()


      DMRGSCF: active space solver is set to qcmaquis
      -------                                --------


      Header of the ONEINT file:
      --------------------------
      
      Integrals generated by Gateway/Seward, Tue Apr  9 00:43:06 2024


      OrdInt status: non-squared


      Cartesian coordinates in Angstrom:
      -----------------------------------------------------
      No.  Label        X            Y            Z        
      -----------------------------------------------------
       1   N1         0.00000000   0.00000000   0.00000000
       2   N2         0.00000000   0.00000000   3.20000000
      -----------------------------------------------------
      Nuclear repulsion energy =    8.10302604

++    Wave function specifications:
      -----------------------------

      Number of closed shell electrons           4
      Number of electrons in active shells      10
      Max number of holes in RAS1 space          0
      Max nr of electrons in RAS3 space          0
      Number of inactive orbitals                2
      Number of active orbitals                  8
      Number of secondary orbitals              50
      Spin quantum number                      0.0
      State symmetry                             1
--

++    Orbital specifications:
      -----------------------

      Symmetry species                           1
                                                 a
      Frozen orbitals                            0
      Inactive orbitals                          2
      Active orbitals                            8
      RAS1 orbitals                              0
      RAS2 orbitals                              8
      RAS3 orbitals                              0
      Secondary orbitals                        50
      Deleted orbitals                           0
      Number of basis functions                 60
--

++    DMRG specifications:
      ----------------------------

      Number of renormalized states              300
      (Max) number of sweeps                     5
      Convergence threshold (sweep tolerance)    0.100E-07
      Jacobi-Davidson threshold                  0.100E-10
      SVD truncation threshold (initial)         1e-50
      SVD truncation threshold (final)           0.100E-10
      Number of root(s) required                 1
      Root chosen for geometry opt.              1
      DMRG root used                             1
         
--

++    Optimization specifications:
      ----------------------------

      RASSCF algorithm: LK Cholesky
      Maximum number of macro iterations       200
      Maximum number of SX iterations          100
      Threshold for RASSCF energy            1.000E-08
      Threshold for max MO rotation          1.000E-01
      Threshold for max BLB element          1.000E-04
      Level shift parameter                  5.000E-01
      Make Quasi-Newton update
--

      The MO-coefficients are taken from the file:
      /public/home/xzzeng/work/HQC/N2/cc-pvtz/NO/PES/entropy/3.2/results/work_dir/n2/dmrg/n2.scf.h5_sel                                                                                                                                                               

      Total molecular charge    0.00

      ************************************************************************************************************************
      *                                                                                                                      *
      *                                            Wave function control section                                             *
      *                                                                                                                      *
      ************************************************************************************************************************


                                         DMRGCI only, no orbital optimization will be done.
                                         --------------------------------------------------

                                             Please cite for the QCMaquis-Molcas driver:

                                    Freitag L.; Keller S.; Knecht S.; Lindh R.; Ma Y.; 
                                    Stein C. J. and Reiher M., in preparation. (2018).
                                    ---------------------------------------------------------------

                                             Please cite for the QCMaquis DMRG software:

                                    S. Keller, M. Dolfi, M. Troyer, M. Reiher,
                                    J. Chem. Phys. 143, 244118 (2015)
                                    ---------------------------------------------------------------



      DMRGCI energy              :    -108.7436480781
      Total time spent (hh:mm:ss):            0:00:04


      Natural orbitals and occupation numbers for root  1
      sym 1:   1.999937   1.999747   1.108554   1.020917   1.020917   0.979117   0.979117   0.891695

      ************************************************************************************************************************
      *                                                                                                                      *
      *                                                    Final results                                                     *
      *                                                                                                                      *
      ************************************************************************************************************************


++    Wave function specifications:
      -----------------------------

      Number of closed shell electrons           4
      Number of electrons in active shells      10
      Max number of holes in RAS1 space          0
      Max nr of electrons in RAS3 space          0
      Number of inactive orbitals                2
      Number of active orbitals                  8
      Number of secondary orbitals              50
      Spin quantum number                      0.0
      State symmetry                             1
--

++    Orbital specifications:
      -----------------------

      Symmetry species                           1
                                                 a
      Frozen orbitals                            0
      Inactive orbitals                          2
      Active orbitals                            8
      RAS1 orbitals                              0
      RAS2 orbitals                              8
      RAS3 orbitals                              0
      Secondary orbitals                        50
      Deleted orbitals                           0
      Number of basis functions                 60
--

++    DMRG specifications:
      ----------------------------

      Number of renormalized states              300
      (Max) number of sweeps                     5
      Convergence threshold (sweep tolerance)    0.100E-07
      Jacobi-Davidson threshold                  0.100E-10
      SVD truncation threshold (initial)         1e-50
      SVD truncation threshold (final)           0.100E-10
      Number of root(s) required                 1
      DMRG root used                             1
      highest root included in the DMRG          1
      Root passed to geometry opt.               1
--

++    Final optimization conditions:
      ------------------------------

      Average CI energy                            -108.74364808
--


      Final state energy(ies):
      ------------------------

::    RASSCF root number  1 Total energy:   -108.74364808

++    Molecular orbitals:
      -------------------

      Pseudonatural active orbitals and approximate occupation numbers




      Molecular orbitals for symmetry species 1: a  


      Orbital                 1         2         3         4         5         6         7         8         9        10
      Energy             0.0000    0.0000    0.0000    0.0000    0.0000    0.0000    0.0000    0.0000    0.0000    0.0000
      Occ. No.           0.0000    0.0000    0.0000    0.0000    0.0000    0.0000    0.0000    0.0000    0.0000    0.0000

     1 N1     1s         0.6497    0.7612    0.0004   -0.0028    0.0089   -0.0000    0.0000    0.0000    0.0000    0.0055
     2 N1     2s         0.0004    0.0000    0.7248   -0.7403    0.0639   -0.0000    0.0000    0.0000   -0.0000    0.0694
     3 N1     *s        -0.0010   -0.0010    0.0088   -0.0084   -0.0018    0.0000   -0.0000   -0.0000   -0.0000   -0.0014
     4 N1     *s        -0.0002    0.0001   -0.0298    0.0416   -0.0444    0.0000   -0.0000   -0.0000   -0.0000   -0.0262
     5 N1     2px       -0.0000    0.0000    0.0000   -0.0000   -0.0000   -0.0000    0.6491    0.0000   -0.6578   -0.0000
     6 N1     *px        0.0000   -0.0000   -0.0000    0.0000    0.0000    0.0000   -0.0195   -0.0000    0.0172    0.0000
     7 N1     *px       -0.0000    0.0000    0.0000   -0.0000   -0.0000   -0.0000    0.0931    0.0000   -0.0890   -0.0000
     8 N1     2py        0.0000    0.0000    0.0000   -0.0000    0.0000    0.6491    0.0000   -0.6578   -0.0000    0.0000
     9 N1     *py       -0.0000   -0.0000   -0.0000   -0.0000   -0.0000   -0.0195   -0.0000    0.0172    0.0000   -0.0000
    10 N1     *py       -0.0000   -0.0000    0.0000    0.0000    0.0000    0.0931    0.0000   -0.0890   -0.0000    0.0000
    11 N1     2pz        0.0007    0.0009    0.0005    0.0263   -0.6225   -0.0000   -0.0000   -0.0000   -0.0000    0.6735
    12 N1     *pz       -0.0004   -0.0008   -0.0007    0.0001    0.0187    0.0000    0.0000    0.0000    0.0000   -0.0189
    13 N1     *pz       -0.0002   -0.0001    0.0050    0.0011   -0.0999    0.0000   -0.0000   -0.0000   -0.0000    0.0950
    14 N1     *d2-       0.0000   -0.0000   -0.0000    0.0000    0.0000   -0.0000    0.0000    0.0000    0.0000    0.0000
    15 N1     *d2-      -0.0000    0.0000   -0.0000    0.0000   -0.0000    0.0000   -0.0000   -0.0000    0.0000    0.0000
    16 N1     *d1-      -0.0000   -0.0000   -0.0000    0.0000    0.0000    0.0004    0.0000   -0.0006   -0.0000    0.0000
    17 N1     *d1-      -0.0000   -0.0000   -0.0000    0.0000   -0.0000    0.0057    0.0000    0.0066    0.0000   -0.0000
    18 N1     *d0       -0.0000   -0.0000   -0.0001    0.0002   -0.0006   -0.0000   -0.0000   -0.0000    0.0000    0.0004
    19 N1     *d0       -0.0000    0.0000    0.0009    0.0012   -0.0096    0.0000   -0.0000   -0.0000    0.0000   -0.0082
    20 N1     *d1+       0.0000    0.0000    0.0000   -0.0000    0.0000   -0.0000    0.0004    0.0000   -0.0006    0.0000
    21 N1     *d1+       0.0000   -0.0000   -0.0000    0.0000   -0.0000   -0.0000    0.0057   -0.0000    0.0066   -0.0000
    22 N1     *d2+      -0.0000   -0.0000   -0.0000    0.0000    0.0000   -0.0000    0.0000   -0.0000   -0.0000    0.0000
    23 N1     *d2+       0.0000    0.0000    0.0000   -0.0000   -0.0000    0.0000   -0.0000   -0.0000    0.0000    0.0000
    24 N1     *f3-       0.0000    0.0000    0.0000    0.0000    0.0000    0.0000    0.0000   -0.0000    0.0000    0.0000
    25 N1     *f2-      -0.0000   -0.0000   -0.0000   -0.0000   -0.0000   -0.0000    0.0000   -0.0000   -0.0000   -0.0000
    26 N1     *f1-       0.0000   -0.0000   -0.0000    0.0000   -0.0000    0.0003    0.0000    0.0004    0.0000    0.0000
    27 N1     *f0       -0.0000    0.0000    0.0001    0.0001   -0.0005   -0.0000    0.0000    0.0000    0.0000   -0.0004
    28 N1     *f1+       0.0000   -0.0000   -0.0000    0.0000    0.0000   -0.0000    0.0003   -0.0000    0.0004    0.0000
    29 N1     *f2+       0.0000    0.0000    0.0000   -0.0000   -0.0000   -0.0000    0.0000    0.0000   -0.0000   -0.0000
    30 N1     *f3+       0.0000   -0.0000   -0.0000    0.0000    0.0000    0.0000    0.0000    0.0000   -0.0000    0.0000
    31 N2     1s         0.7614   -0.6496    0.0004    0.0028    0.0089   -0.0000    0.0000    0.0000    0.0000   -0.0055
    32 N2     2s         0.0004    0.0000    0.7249    0.7403    0.0639    0.0000    0.0000    0.0000    0.0000   -0.0694
    33 N2     *s        -0.0012    0.0009    0.0088    0.0084   -0.0018    0.0000   -0.0000   -0.0000   -0.0000    0.0014
    34 N2     *s        -0.0002   -0.0001   -0.0298   -0.0416   -0.0444    0.0000   -0.0000   -0.0000   -0.0000    0.0262
    35 N2     2px        0.0000   -0.0000    0.0000    0.0000   -0.0000   -0.0000    0.6491   -0.0000    0.6578    0.0000
    36 N2     *px       -0.0000    0.0000   -0.0000   -0.0000    0.0000    0.0000   -0.0195    0.0000   -0.0172   -0.0000
    37 N2     *px        0.0000   -0.0000    0.0000    0.0000   -0.0000   -0.0000    0.0931   -0.0000    0.0890    0.0000
    38 N2     2py       -0.0000    0.0000    0.0000    0.0000   -0.0000    0.6491    0.0000    0.6578    0.0000    0.0000
    39 N2     *py        0.0000   -0.0000   -0.0000    0.0000    0.0000   -0.0195   -0.0000   -0.0172   -0.0000   -0.0000
    40 N2     *py        0.0000   -0.0000    0.0000   -0.0000    0.0000    0.0931    0.0000    0.0890    0.0000    0.0000
    41 N2     2pz       -0.0008    0.0008   -0.0005    0.0263    0.6225   -0.0000    0.0000    0.0000   -0.0000    0.6735
    42 N2     *pz        0.0006   -0.0007    0.0007    0.0001   -0.0187    0.0000   -0.0000   -0.0000    0.0000   -0.0188
    43 N2     *pz        0.0002   -0.0000   -0.0050    0.0011    0.0999   -0.0000    0.0000    0.0000   -0.0000    0.0950
    44 N2     *d2-      -0.0000   -0.0000    0.0000    0.0000   -0.0000    0.0000   -0.0000   -0.0000   -0.0000    0.0000
    45 N2     *d2-       0.0000   -0.0000   -0.0000   -0.0000   -0.0000   -0.0000   -0.0000    0.0000   -0.0000    0.0000
    46 N2     *d1-      -0.0000    0.0000   -0.0000   -0.0000    0.0000   -0.0004   -0.0000   -0.0006   -0.0000   -0.0000
    47 N2     *d1-      -0.0000    0.0000   -0.0000   -0.0000   -0.0000   -0.0057   -0.0000    0.0066    0.0000   -0.0000
    48 N2     *d0       -0.0000    0.0000   -0.0001   -0.0002   -0.0006    0.0000    0.0000   -0.0000   -0.0000   -0.0004
    49 N2     *d0       -0.0000   -0.0000    0.0009   -0.0012   -0.0096   -0.0000   -0.0000   -0.0000   -0.0000    0.0082
    50 N2     *d1+       0.0000   -0.0000    0.0000    0.0000   -0.0000    0.0000   -0.0004    0.0000   -0.0006    0.0000
    51 N2     *d1+      -0.0000    0.0000    0.0000   -0.0000    0.0000    0.0000   -0.0057   -0.0000    0.0066   -0.0000
    52 N2     *d2+      -0.0000   -0.0000   -0.0000   -0.0000    0.0000    0.0000   -0.0000    0.0000    0.0000   -0.0000
    53 N2     *d2+       0.0000   -0.0000    0.0000    0.0000   -0.0000    0.0000    0.0000    0.0000   -0.0000   -0.0000
    54 N2     *f3-      -0.0000   -0.0000    0.0000   -0.0000   -0.0000   -0.0000   -0.0000    0.0000    0.0000    0.0000
    55 N2     *f2-       0.0000   -0.0000   -0.0000   -0.0000    0.0000   -0.0000    0.0000   -0.0000    0.0000    0.0000
    56 N2     *f1-       0.0000    0.0000    0.0000    0.0000   -0.0000    0.0003    0.0000   -0.0004   -0.0000    0.0000
    57 N2     *f0       -0.0000    0.0000   -0.0001    0.0001    0.0005   -0.0000   -0.0000   -0.0000    0.0000   -0.0004
    58 N2     *f1+      -0.0000    0.0000   -0.0000   -0.0000    0.0000   -0.0000    0.0003    0.0000   -0.0004    0.0000
    59 N2     *f2+      -0.0000    0.0000   -0.0000   -0.0000    0.0000   -0.0000    0.0000   -0.0000    0.0000   -0.0000
    60 N2     *f3+      -0.0000    0.0000   -0.0000   -0.0000   -0.0000   -0.0000    0.0000   -0.0000   -0.0000   -0.0000


      Orbital                11        12        13        14        15        16        17        18        19        20
      Energy             0.0000    0.0000    0.0000    0.0000    0.0000    0.0000    0.0000    0.0000    0.0000    0.0000
      Occ. No.           0.0000    0.0000    0.0000    0.0000    0.0000    0.0000    0.0000    0.0000    0.0000    0.0000

     1 N1     1s        -0.1803   -0.0000    0.0000    0.2315    0.0000   -0.0000   -0.2968   -0.2630    0.0150   -0.0000
     2 N1     2s        -0.9023   -0.0000    0.0000    1.1371    0.0000   -0.0000   -1.4271   -1.2798    0.0919   -0.0000
     3 N1     *s         0.0532    0.0000   -0.0000   -0.0639   -0.0000    0.0000    0.0851    0.0531    0.0047    0.0000
     4 N1     *s         0.9255    0.0000   -0.0000   -1.2063   -0.0000    0.0000    1.5470    1.4544   -0.1076    0.0000
     5 N1     2px       -0.0000    0.0000   -0.4950   -0.0000    0.0000   -0.5026    0.0000    0.0000    0.0000   -0.0000
     6 N1     *px       -0.0000    0.0000   -0.3425   -0.0000    0.0000   -0.3451    0.0000    0.0000   -0.0000    0.0000
     7 N1     *px        0.0000   -0.0000    0.9889    0.0000   -0.0000    1.0470   -0.0000   -0.0000   -0.0000    0.0000
     8 N1     2py        0.0000   -0.4950   -0.0000   -0.0000    0.5026    0.0000    0.0000   -0.0000   -0.0000   -0.0307
     9 N1     *py        0.0000   -0.3425   -0.0000   -0.0000    0.3451    0.0000    0.0000   -0.0000    0.0000    0.0004
    10 N1     *py       -0.0000    0.9889    0.0000    0.0000   -1.0470   -0.0000   -0.0000    0.0000   -0.0000    0.0503
    11 N1     2pz       -0.4554   -0.0000    0.0000   -0.3463   -0.0000    0.0000    0.2914   -0.3362    0.0699   -0.0000
    12 N1     *pz       -0.2441    0.0000    0.0000   -0.2766   -0.0000    0.0000    0.1809   -0.2464    0.0068    0.0000
    13 N1     *pz        0.7195   -0.0000   -0.0000    0.7940    0.0000   -0.0000   -0.5704    0.8489   -0.1168   -0.0000
    14 N1     *d2-      -0.0000   -0.0000    0.0000   -0.0000   -0.0000    0.0000    0.0000    0.0000   -0.0000    0.0000
    15 N1     *d2-      -0.0000    0.0000   -0.0000    0.0000    0.0000   -0.0000   -0.0000   -0.0000    0.0000   -0.0000
    16 N1     *d1-      -0.0000   -0.0018   -0.0000    0.0000   -0.0019   -0.0000   -0.0000   -0.0000   -0.0000    0.0138
    17 N1     *d1-       0.0000    0.0203    0.0000   -0.0000    0.0284    0.0000    0.0000    0.0000    0.0000   -0.7129
    18 N1     *d0       -0.0028   -0.0000    0.0000    0.0002    0.0000    0.0000   -0.0008    0.0086   -0.0164   -0.0000
    19 N1     *d0        0.0500    0.0000   -0.0000   -0.0219   -0.0000    0.0000    0.0039   -0.1767    0.7104    0.0000
    20 N1     *d1+       0.0000    0.0000   -0.0018    0.0000   -0.0000    0.0019   -0.0000   -0.0000   -0.0000    0.0000
    21 N1     *d1+       0.0000   -0.0000    0.0203   -0.0000    0.0000   -0.0284    0.0000    0.0000    0.0000   -0.0000
    22 N1     *d2+      -0.0000   -0.0000   -0.0000   -0.0000    0.0000   -0.0000    0.0000    0.0000   -0.0000   -0.0000
    23 N1     *d2+       0.0000    0.0000    0.0000    0.0000   -0.0000   -0.0000   -0.0000   -0.0000    0.0000    0.0000
    24 N1     *f3-       0.0000    0.0000    0.0000   -0.0000    0.0000    0.0000   -0.0000   -0.0000    0.0000   -0.0000
    25 N1     *f2-       0.0000   -0.0000   -0.0000    0.0000    0.0000   -0.0000    0.0000   -0.0000    0.0000   -0.0000
    26 N1     *f1-      -0.0000    0.0009    0.0000   -0.0000    0.0010    0.0000    0.0000   -0.0000   -0.0000   -0.0004
    27 N1     *f0        0.0017    0.0000    0.0000   -0.0006   -0.0000    0.0000    0.0001   -0.0032    0.0010   -0.0000
    28 N1     *f1+       0.0000   -0.0000    0.0009   -0.0000    0.0000   -0.0010   -0.0000    0.0000   -0.0000   -0.0000
    29 N1     *f2+       0.0000    0.0000   -0.0000    0.0000   -0.0000    0.0000   -0.0000   -0.0000    0.0000   -0.0000
    30 N1     *f3+       0.0000   -0.0000    0.0000    0.0000   -0.0000    0.0000    0.0000    0.0000    0.0000    0.0000
    31 N2     1s        -0.1803    0.0000    0.0000   -0.2316    0.0000   -0.0000   -0.2967    0.2630    0.0150    0.0000
    32 N2     2s        -0.9025    0.0000    0.0000   -1.1378    0.0000   -0.0000   -1.4267    1.2798    0.0919    0.0000
    33 N2     *s         0.0533   -0.0000   -0.0000    0.0639   -0.0000    0.0000    0.0851   -0.0531    0.0047   -0.0000
    34 N2     *s         0.9257   -0.0000   -0.0000    1.2071   -0.0000    0.0000    1.5465   -1.4542   -0.1076   -0.0000
    35 N2     2px       -0.0000    0.0000   -0.4951    0.0000   -0.0000    0.5026   -0.0000   -0.0000   -0.0000   -0.0000
    36 N2     *px       -0.0000    0.0000   -0.3426    0.0000   -0.0000    0.3450   -0.0000   -0.0000    0.0000    0.0000
    37 N2     *px        0.0000   -0.0000    0.9889   -0.0000    0.0000   -1.0470    0.0000    0.0000   -0.0000    0.0000
    38 N2     2py        0.0000   -0.4951   -0.0000   -0.0000   -0.5026   -0.0000   -0.0000   -0.0000    0.0000   -0.0307
    39 N2     *py        0.0000   -0.3426   -0.0000   -0.0000   -0.3450   -0.0000   -0.0000   -0.0000    0.0000    0.0004
    40 N2     *py        0.0000    0.9889    0.0000    0.0000    1.0470    0.0000    0.0000   -0.0000   -0.0000    0.0503
    41 N2     2pz        0.4553    0.0000   -0.0000   -0.3465    0.0000   -0.0000   -0.2912   -0.3362   -0.0699   -0.0000
    42 N2     *pz        0.2440    0.0000   -0.0000   -0.2768    0.0000   -0.0000   -0.1808   -0.2464   -0.0068   -0.0000
    43 N2     *pz       -0.7194   -0.0000    0.0000    0.7944   -0.0000    0.0000    0.5699    0.8489    0.1168    0.0000
    44 N2     *d2-      -0.0000    0.0000    0.0000   -0.0000   -0.0000   -0.0000   -0.0000    0.0000   -0.0000    0.0000
    45 N2     *d2-       0.0000   -0.0000   -0.0000    0.0000    0.0000    0.0000    0.0000   -0.0000    0.0000   -0.0000
    46 N2     *d1-      -0.0000    0.0018    0.0000   -0.0000   -0.0018   -0.0000   -0.0000    0.0000    0.0000   -0.0138
    47 N2     *d1-       0.0000   -0.0203   -0.0000   -0.0000    0.0284    0.0000    0.0000   -0.0000   -0.0000    0.7129
    48 N2     *d0       -0.0028   -0.0000    0.0000   -0.0002    0.0000    0.0000   -0.0008   -0.0086   -0.0164   -0.0000
    49 N2     *d0        0.0500    0.0000   -0.0000    0.0219   -0.0000    0.0000    0.0039    0.1767    0.7104    0.0000
    50 N2     *d1+      -0.0000   -0.0000    0.0018   -0.0000   -0.0000    0.0018    0.0000    0.0000    0.0000   -0.0000
    51 N2     *d1+      -0.0000    0.0000   -0.0203   -0.0000    0.0000   -0.0284    0.0000   -0.0000   -0.0000    0.0000
    52 N2     *d2+      -0.0000   -0.0000    0.0000    0.0000   -0.0000   -0.0000    0.0000   -0.0000   -0.0000    0.0000
    53 N2     *d2+       0.0000    0.0000    0.0000   -0.0000    0.0000    0.0000   -0.0000    0.0000    0.0000    0.0000
    54 N2     *f3-      -0.0000   -0.0000   -0.0000    0.0000    0.0000    0.0000   -0.0000    0.0000    0.0000    0.0000
    55 N2     *f2-       0.0000   -0.0000   -0.0000   -0.0000   -0.0000    0.0000    0.0000   -0.0000   -0.0000   -0.0000
    56 N2     *f1-       0.0000    0.0009    0.0000   -0.0000   -0.0010   -0.0000   -0.0000   -0.0000   -0.0000   -0.0004
    57 N2     *f0       -0.0017    0.0000    0.0000   -0.0006    0.0000   -0.0000   -0.0001   -0.0032   -0.0010    0.0000
    58 N2     *f1+      -0.0000   -0.0000    0.0009    0.0000   -0.0000    0.0010    0.0000   -0.0000    0.0000   -0.0000
    59 N2     *f2+      -0.0000    0.0000   -0.0000    0.0000    0.0000   -0.0000    0.0000   -0.0000   -0.0000    0.0000
    60 N2     *f3+       0.0000   -0.0000    0.0000   -0.0000   -0.0000    0.0000   -0.0000   -0.0000   -0.0000   -0.0000


      Orbital                21        22        23        24        25        26        27        28        29        30
      Energy             0.0000    0.0000    0.0000    0.0000    0.0000    0.0000    0.0000    0.0000    0.0000    0.0000
      Occ. No.           0.0000    0.0000    0.0000    0.0000    0.0000    0.0000    0.0000    0.0000    0.0000    0.0000

     1 N1     1s         0.0000    0.0000   -0.0000   -0.0000    0.0000    0.0000   -0.0000    0.0561   -0.0000    0.0000
     2 N1     2s        -0.0000   -0.0000   -0.0000    0.0000    0.0000    0.0000   -0.0000    0.3180   -0.0000    0.0000
     3 N1     *s        -0.0000   -0.0000   -0.0000    0.0000    0.0000   -0.0000    0.0000    0.0145    0.0000   -0.0000
     4 N1     *s        -0.0000    0.0000    0.0000   -0.0000   -0.0000   -0.0000   -0.0000   -0.3998    0.0000    0.0000
     5 N1     2px       -0.0307   -0.0000   -0.0000   -0.0000    0.0000   -0.0000    0.0361    0.0000   -0.0000   -2.4148
     6 N1     *px        0.0004    0.0000   -0.0000   -0.0000    0.0000   -0.0000    0.0046   -0.0000    0.0000    2.2279
     7 N1     *px        0.0503    0.0000    0.0000   -0.0000   -0.0000    0.0000   -0.0658    0.0000    0.0000    0.4059
     8 N1     2py        0.0000    0.0000   -0.0000   -0.0000    0.0000   -0.0361   -0.0000    0.0000   -2.4148    0.0000
     9 N1     *py       -0.0000    0.0000    0.0000   -0.0000   -0.0000   -0.0046   -0.0000    0.0000    2.2279   -0.0000
    10 N1     *py       -0.0000   -0.0000    0.0000    0.0000   -0.0000    0.0658    0.0000   -0.0000    0.4059   -0.0000
    11 N1     2pz        0.0000    0.0000   -0.0000    0.0000    0.0000   -0.0000   -0.0000    0.1972   -0.0000   -0.0000
    12 N1     *pz       -0.0000   -0.0000   -0.0000    0.0000    0.0000   -0.0000    0.0000    0.0336    0.0000    0.0000
    13 N1     *pz       -0.0000   -0.0000    0.0000   -0.0000   -0.0000    0.0000   -0.0000   -0.3794    0.0000    0.0000
    14 N1     *d2-       0.0000    0.0000   -0.0128   -0.0000    0.0126    0.0000   -0.0000   -0.0000   -0.0000    0.0000
    15 N1     *d2-      -0.0000   -0.0000    0.7137    0.0000   -0.7136    0.0000    0.0000    0.0000   -0.0000    0.0000
    16 N1     *d1-      -0.0000   -0.0000    0.0000    0.0000    0.0000   -0.0112   -0.0000    0.0000    0.0054   -0.0000
    17 N1     *d1-       0.0000    0.0000   -0.0000   -0.0000   -0.0000    0.7135    0.0000    0.0000    0.0089   -0.0000
    18 N1     *d0       -0.0000    0.0000    0.0000   -0.0000   -0.0000   -0.0000    0.0000    0.0023   -0.0000    0.0000
    19 N1     *d0        0.0000   -0.0000   -0.0000    0.0000    0.0000   -0.0000   -0.0000   -0.6951    0.0000    0.0000
    20 N1     *d1+       0.0138    0.0000    0.0000    0.0000   -0.0000   -0.0000    0.0112   -0.0000    0.0000    0.0054
    21 N1     *d1+      -0.7129   -0.0000   -0.0000   -0.0000    0.0000    0.0000   -0.7135    0.0000    0.0000    0.0089
    22 N1     *d2+       0.0000   -0.0128   -0.0000    0.0126    0.0000   -0.0000   -0.0000   -0.0000   -0.0000   -0.0000
    23 N1     *d2+      -0.0000    0.7137    0.0000   -0.7136   -0.0000    0.0000    0.0000   -0.0000   -0.0000   -0.0000
    24 N1     *f3-       0.0000   -0.0000    0.0000    0.0000    0.0000   -0.0000   -0.0000    0.0000    0.0000   -0.0000
    25 N1     *f2-       0.0000   -0.0000    0.0001   -0.0000    0.0002    0.0000    0.0000   -0.0000   -0.0000    0.0000
    26 N1     *f1-       0.0000    0.0000    0.0000   -0.0000    0.0000   -0.0008   -0.0000    0.0000   -0.0048    0.0000
    27 N1     *f0        0.0000   -0.0000   -0.0000   -0.0000    0.0000    0.0000   -0.0000    0.0041   -0.0000   -0.0000
    28 N1     *f1+      -0.0004   -0.0000   -0.0000    0.0000    0.0000   -0.0000    0.0008    0.0000   -0.0000   -0.0048
    29 N1     *f2+      -0.0000    0.0001    0.0000    0.0002    0.0000    0.0000    0.0000    0.0000   -0.0000   -0.0000
    30 N1     *f3+       0.0000    0.0000    0.0000    0.0000   -0.0000    0.0000   -0.0000   -0.0000   -0.0000   -0.0000
    31 N2     1s         0.0000    0.0000    0.0000   -0.0000    0.0000    0.0000    0.0000   -0.0561   -0.0000   -0.0000
    32 N2     2s         0.0000   -0.0000   -0.0000   -0.0000    0.0000    0.0000    0.0000   -0.3180   -0.0000   -0.0000
    33 N2     *s         0.0000   -0.0000   -0.0000   -0.0000   -0.0000   -0.0000   -0.0000   -0.0145    0.0000    0.0000
    34 N2     *s        -0.0000    0.0000    0.0000    0.0000    0.0000   -0.0000    0.0000    0.3998    0.0000    0.0000
    35 N2     2px       -0.0307    0.0000   -0.0000   -0.0000    0.0000    0.0000   -0.0361    0.0000   -0.0000   -2.4169
    36 N2     *px        0.0004   -0.0000   -0.0000   -0.0000   -0.0000    0.0000   -0.0046   -0.0000    0.0000    2.2298
    37 N2     *px        0.0503    0.0000    0.0000    0.0000   -0.0000   -0.0000    0.0658   -0.0000    0.0000    0.4062
    38 N2     2py        0.0000    0.0000   -0.0000   -0.0000   -0.0000    0.0361    0.0000   -0.0000   -2.4169    0.0000
    39 N2     *py       -0.0000    0.0000   -0.0000    0.0000    0.0000    0.0046    0.0000    0.0000    2.2298   -0.0000
    40 N2     *py       -0.0000   -0.0000    0.0000    0.0000    0.0000   -0.0658   -0.0000   -0.0000    0.4062   -0.0000
    41 N2     2pz        0.0000   -0.0000    0.0000    0.0000    0.0000    0.0000   -0.0000    0.1972    0.0000    0.0000
    42 N2     *pz       -0.0000    0.0000   -0.0000    0.0000    0.0000   -0.0000    0.0000    0.0336   -0.0000   -0.0000
    43 N2     *pz        0.0000    0.0000   -0.0000   -0.0000   -0.0000    0.0000   -0.0000   -0.3794   -0.0000   -0.0000
    44 N2     *d2-      -0.0000    0.0000   -0.0128    0.0000   -0.0126   -0.0000    0.0000    0.0000    0.0000    0.0000
    45 N2     *d2-      -0.0000   -0.0000    0.7135   -0.0000    0.7138    0.0000   -0.0000   -0.0000    0.0000    0.0000
    46 N2     *d1-       0.0000    0.0000    0.0000   -0.0000    0.0000   -0.0112   -0.0000   -0.0000   -0.0054    0.0000
    47 N2     *d1-      -0.0000   -0.0000    0.0000    0.0000    0.0000    0.7135    0.0000    0.0000   -0.0088    0.0000
    48 N2     *d0       -0.0000    0.0000    0.0000    0.0000   -0.0000   -0.0000    0.0000   -0.0023    0.0000    0.0000
    49 N2     *d0        0.0000   -0.0000   -0.0000   -0.0000    0.0000   -0.0000   -0.0000    0.6951    0.0000    0.0000
    50 N2     *d1+      -0.0138   -0.0000   -0.0000   -0.0000    0.0000   -0.0000    0.0112    0.0000   -0.0000   -0.0054
    51 N2     *d1+       0.7129    0.0000    0.0000    0.0000   -0.0000    0.0000   -0.7135    0.0000   -0.0000   -0.0088
    52 N2     *d2+       0.0000   -0.0128   -0.0000   -0.0126   -0.0000    0.0000    0.0000    0.0000   -0.0000    0.0000
    53 N2     *d2+      -0.0000    0.7135    0.0000    0.7138    0.0000   -0.0000   -0.0000    0.0000   -0.0000    0.0000
    54 N2     *f3-      -0.0000   -0.0000   -0.0000   -0.0000    0.0000    0.0000    0.0000   -0.0000    0.0000   -0.0000
    55 N2     *f2-      -0.0000   -0.0000   -0.0001   -0.0000    0.0002    0.0000    0.0000    0.0000   -0.0000    0.0000
    56 N2     *f1-       0.0000   -0.0000   -0.0000   -0.0000    0.0000    0.0008    0.0000   -0.0000   -0.0048    0.0000
    57 N2     *f0        0.0000    0.0000   -0.0000   -0.0000   -0.0000    0.0000    0.0000    0.0041   -0.0000    0.0000
    58 N2     *f1+      -0.0004   -0.0000    0.0000    0.0000    0.0000    0.0000   -0.0008   -0.0000   -0.0000   -0.0048
    59 N2     *f2+      -0.0000   -0.0001    0.0000    0.0002    0.0000    0.0000   -0.0000    0.0000   -0.0000   -0.0000
    60 N2     *f3+      -0.0000   -0.0000    0.0000    0.0000    0.0000   -0.0000    0.0000    0.0000   -0.0000   -0.0000


      Orbital                31        32        33        34        35        36        37        38        39        40
      Energy             0.0000    0.0000    0.0000    0.0000    0.0000    0.0000    0.0000    0.0000    0.0000    0.0000
      Occ. No.           0.0000    0.0000    0.0000    0.0000    0.0000    0.0000    0.0000    0.0000    0.0000    0.0000

     1 N1     1s        -0.0036    0.0000   -0.0000   -0.0344    0.0000   -0.0000    0.0000    0.0000   -0.0000    0.0000
     2 N1     2s         0.0195    0.0000   -0.0000   -0.0036    0.0000    0.0000   -0.0000    0.0000   -0.0000    0.0000
     3 N1     *s         0.0213   -0.0000    0.0000    0.0896   -0.0000    0.0000   -0.0000   -0.0000    0.0000   -0.0000
     4 N1     *s        -0.0552    0.0000    0.0000   -0.0968   -0.0000   -0.0000    0.0000   -0.0000    0.0000   -0.0000
     5 N1     2px       -0.0000   -0.0000    2.4241    0.0000   -0.0000    0.0000    0.0000    0.0000   -0.0000   -0.0000
     6 N1     *px        0.0000    0.0000   -2.2626   -0.0000    0.0000   -0.0000   -0.0000   -0.0000    0.0000    0.0000
     7 N1     *px        0.0000    0.0000   -0.3593   -0.0000    0.0000   -0.0000   -0.0000   -0.0000   -0.0000   -0.0000
     8 N1     2py        0.0000    2.4241    0.0000    0.0000    0.0000    0.0000   -0.0000    0.0000    0.0000   -0.0000
     9 N1     *py       -0.0000   -2.2626   -0.0000   -0.0000   -0.0000   -0.0000    0.0000   -0.0000   -0.0000    0.0000
    10 N1     *py       -0.0000   -0.3593   -0.0000   -0.0000    0.0000    0.0000   -0.0000    0.0000    0.0000   -0.0000
    11 N1     2pz        2.4109   -0.0000    0.0000   -2.4274    0.0000   -0.0000    0.0000    0.0000   -0.0000    0.0000
    12 N1     *pz       -2.2223    0.0000   -0.0000    2.3194   -0.0000    0.0000   -0.0000   -0.0000    0.0000   -0.0000
    13 N1     *pz       -0.4295    0.0000   -0.0000    0.2353   -0.0000    0.0000    0.0000    0.0000   -0.0000    0.0000
    14 N1     *d2-       0.0000    0.0000   -0.0000   -0.0000   -0.0000    0.0000    0.0000   -0.0000   -0.0038    0.0000
    15 N1     *d2-      -0.0000    0.0000   -0.0000    0.0000    0.0000   -0.0000   -0.0000    0.0000    0.0021    0.0000
    16 N1     *d1-       0.0000    0.0092    0.0000    0.0000    0.0000    0.0000    0.0000   -0.0000    0.0000   -0.0000
    17 N1     *d1-       0.0000    0.0075    0.0000    0.0000   -0.0000   -0.0000   -0.0000    0.0000    0.0000    0.0000
    18 N1     *d0       -0.0134    0.0000   -0.0000   -0.0374    0.0000    0.0000    0.0000   -0.0000   -0.0000   -0.0000
    19 N1     *d0       -0.0239    0.0000   -0.0000   -0.0401   -0.0000    0.0000    0.0000    0.0000    0.0000    0.0000
    20 N1     *d1+      -0.0000   -0.0000    0.0092    0.0000    0.0000   -0.0000   -0.0000   -0.0000   -0.0000   -0.0000
    21 N1     *d1+      -0.0000   -0.0000    0.0075   -0.0000   -0.0000    0.0000    0.0000    0.0000    0.0000    0.0000
    22 N1     *d2+      -0.0000    0.0000    0.0000   -0.0000   -0.0000   -0.0000    0.0000    0.0000    0.0000    0.0038
    23 N1     *d2+      -0.0000    0.0000    0.0000   -0.0000    0.0000    0.0000   -0.0000   -0.0000    0.0000   -0.0021
    24 N1     *f3-       0.0000   -0.0000   -0.0000    0.0000   -0.0000   -0.7140   -0.0000    0.7001   -0.0000   -0.0000
    25 N1     *f2-       0.0000    0.0000   -0.0000   -0.0000   -0.0000    0.0000    0.0000   -0.0000   -0.7024    0.0000
    26 N1     *f1-      -0.0000   -0.0049   -0.0000    0.0000    0.0000    0.0001    0.0000   -0.0002    0.0000   -0.0000
    27 N1     *f0        0.0112    0.0000    0.0000    0.0209    0.0000    0.0000    0.0000   -0.0000   -0.0000   -0.0000
    28 N1     *f1+       0.0000    0.0000   -0.0049   -0.0000    0.0003   -0.0000   -0.0003   -0.0000   -0.0000   -0.0000
    29 N1     *f2+       0.0000    0.0000    0.0000    0.0000   -0.0000   -0.0000    0.0000    0.0000    0.0000    0.7058
    30 N1     *f3+       0.0000   -0.0000    0.0000   -0.0000    0.7140   -0.0000   -0.7001   -0.0000   -0.0000    0.0000
    31 N2     1s        -0.0036   -0.0000    0.0000    0.0344    0.0000    0.0000    0.0000    0.0000    0.0000    0.0000
    32 N2     2s         0.0195   -0.0000    0.0000    0.0036    0.0000    0.0000    0.0000    0.0000    0.0000    0.0000
    33 N2     *s         0.0213    0.0000    0.0000   -0.0897   -0.0000   -0.0000    0.0000   -0.0000   -0.0000   -0.0000
    34 N2     *s        -0.0553    0.0000   -0.0000    0.0968   -0.0000    0.0000   -0.0000   -0.0000   -0.0000   -0.0000
    35 N2     2px        0.0000    0.0000   -2.4221   -0.0000   -0.0000    0.0000    0.0000    0.0000    0.0000    0.0000
    36 N2     *px       -0.0000   -0.0000    2.2607    0.0000    0.0000   -0.0000   -0.0000   -0.0000   -0.0000   -0.0000
    37 N2     *px       -0.0000   -0.0000    0.3590    0.0000   -0.0000    0.0000    0.0000    0.0000    0.0000    0.0000
    38 N2     2py       -0.0000   -2.4221   -0.0000   -0.0000   -0.0000   -0.0000   -0.0000    0.0000   -0.0000    0.0000
    39 N2     *py        0.0000    2.2607    0.0000    0.0000    0.0000    0.0000    0.0000   -0.0000    0.0000   -0.0000
    40 N2     *py        0.0000    0.3590    0.0000    0.0000   -0.0000   -0.0000   -0.0000    0.0000   -0.0000    0.0000
    41 N2     2pz       -2.4107    0.0000   -0.0000   -2.4276    0.0000    0.0000    0.0000   -0.0000   -0.0000   -0.0000
    42 N2     *pz        2.2221   -0.0000    0.0000    2.3196   -0.0000   -0.0000   -0.0000    0.0000    0.0000    0.0000
    43 N2     *pz        0.4295   -0.0000    0.0000    0.2353   -0.0000    0.0000    0.0000    0.0000   -0.0000   -0.0000
    44 N2     *d2-       0.0000    0.0000    0.0000   -0.0000    0.0000   -0.0000    0.0000   -0.0000   -0.0039    0.0000
    45 N2     *d2-       0.0000   -0.0000   -0.0000    0.0000   -0.0000    0.0000   -0.0000    0.0000    0.0021   -0.0000
    46 N2     *d1-       0.0000    0.0092    0.0000    0.0000    0.0000    0.0000   -0.0000    0.0000    0.0000   -0.0000
    47 N2     *d1-       0.0000    0.0075    0.0000    0.0000   -0.0000   -0.0000    0.0000   -0.0000   -0.0000    0.0000
    48 N2     *d0       -0.0134    0.0000   -0.0000    0.0374   -0.0000    0.0000   -0.0000    0.0000    0.0000   -0.0000
    49 N2     *d0       -0.0239    0.0000   -0.0000    0.0401    0.0000    0.0000   -0.0000   -0.0000   -0.0000    0.0000
    50 N2     *d1+      -0.0000   -0.0000    0.0092    0.0000    0.0000   -0.0000    0.0000    0.0000   -0.0000   -0.0000
    51 N2     *d1+      -0.0000   -0.0000    0.0075    0.0000   -0.0000    0.0000   -0.0000   -0.0000    0.0000    0.0000
    52 N2     *d2+      -0.0000   -0.0000    0.0000    0.0000    0.0000    0.0000    0.0000    0.0000    0.0000    0.0038
    53 N2     *d2+      -0.0000    0.0000    0.0000    0.0000   -0.0000   -0.0000   -0.0000   -0.0000   -0.0000   -0.0021
    54 N2     *f3-      -0.0000    0.0000    0.0000   -0.0000   -0.0000   -0.7001    0.0000   -0.7140    0.0000    0.0000
    55 N2     *f2-       0.0000   -0.0000    0.0000    0.0000   -0.0000    0.0000   -0.0000    0.0000    0.7118   -0.0000
    56 N2     *f1-       0.0000    0.0049    0.0000    0.0000   -0.0000   -0.0001    0.0000   -0.0002   -0.0000    0.0000
    57 N2     *f0       -0.0112   -0.0000   -0.0000    0.0209    0.0000   -0.0000    0.0000    0.0000   -0.0000    0.0000
    58 N2     *f1+      -0.0000   -0.0000    0.0049   -0.0000    0.0001   -0.0000   -0.0001   -0.0000    0.0000    0.0000
    59 N2     *f2+      -0.0000   -0.0000   -0.0000    0.0000   -0.0000   -0.0000   -0.0000   -0.0000   -0.0000   -0.7084
    60 N2     *f3+      -0.0000    0.0000   -0.0000    0.0000    0.7001   -0.0000    0.7140    0.0000    0.0000   -0.0000


      Orbital                41        42        43        44        45        46        47        48        49        50
      Energy             0.0000    0.0000    0.0000    0.0000    0.0000    0.0000    0.0000    0.0000    0.0000    0.0000
      Occ. No.           0.0000    0.0000    0.0000    0.0000    0.0000    0.0000    0.0000    0.0000    0.0000    0.0000

     1 N1     1s        -0.0000    0.0000    0.0000    0.0000    0.0000   -0.0000    0.0127    0.0263    0.0646    0.0000
     2 N1     2s        -0.0000    0.0000    0.0000    0.0000    0.0000   -0.0000    0.0241    0.0464    0.1294    0.0000
     3 N1     *s         0.0000   -0.0000   -0.0000   -0.0000   -0.0000    0.0000   -0.0196   -0.0430   -0.0973   -0.0000
     4 N1     *s         0.0000   -0.0000    0.0000   -0.0000   -0.0000    0.0000   -0.0122   -0.0160   -0.0696   -0.0000
     5 N1     2px       -0.0000    0.0000   -0.0000    0.0195   -0.0000   -0.0198   -0.0000   -0.0000    0.0000   -0.0000
     6 N1     *px        0.0000   -0.0000    0.0000   -0.0208    0.0000    0.0216    0.0000    0.0000   -0.0000    0.0000
     7 N1     *px       -0.0000    0.0000   -0.0000    0.0015   -0.0000   -0.0025   -0.0000   -0.0000   -0.0000   -0.0000
     8 N1     2py        0.0000    0.0000   -0.0195   -0.0000   -0.0198    0.0000    0.0000    0.0000   -0.0000   -0.0237
     9 N1     *py       -0.0000   -0.0000    0.0208    0.0000    0.0216   -0.0000   -0.0000   -0.0000    0.0000    0.0289
    10 N1     *py        0.0000    0.0000   -0.0015   -0.0000   -0.0025    0.0000    0.0000    0.0000    0.0000   -0.0067
    11 N1     2pz       -0.0000    0.0000    0.0000    0.0000    0.0000   -0.0000    0.0473    0.0785    0.0668    0.0000
    12 N1     *pz        0.0000   -0.0000   -0.0000   -0.0000   -0.0000    0.0000   -0.0505   -0.0875   -0.0799   -0.0000
    13 N1     *pz       -0.0000    0.0000    0.0000    0.0000    0.0000   -0.0000    0.0025    0.0146    0.0178    0.0000
    14 N1     *d2-       0.0041    0.0000    0.0000    0.0000   -0.0000    0.0000    0.0000   -0.0000    0.0000    0.0000
    15 N1     *d2-      -0.0019   -0.0000   -0.0000   -0.0000    0.0000   -0.0000   -0.0000    0.0000   -0.0000   -0.0000
    16 N1     *d1-      -0.0000   -0.0000    0.0036    0.0000   -0.0073    0.0000    0.0000   -0.0000    0.0000   -0.8271
    17 N1     *d1-       0.0000    0.0000   -0.0023   -0.0000    0.0027   -0.0000   -0.0000    0.0000   -0.0000    0.4175
    18 N1     *d0        0.0000    0.0000    0.0000    0.0000   -0.0000    0.0000   -0.0014    0.0223    0.8250    0.0000
    19 N1     *d0       -0.0000   -0.0000   -0.0000   -0.0000    0.0000   -0.0000    0.0014   -0.0050   -0.4114   -0.0000
    20 N1     *d1+       0.0000   -0.0000    0.0000   -0.0036   -0.0000   -0.0073   -0.0000   -0.0000   -0.0000   -0.0000
    21 N1     *d1+      -0.0000    0.0000   -0.0000    0.0023    0.0000    0.0027    0.0000    0.0000    0.0000    0.0000
    22 N1     *d2+      -0.0000    0.0041    0.0000   -0.0000   -0.0000   -0.0000   -0.0000   -0.0000    0.0000    0.0000
    23 N1     *d2+       0.0000   -0.0019   -0.0000    0.0000    0.0000    0.0000    0.0000    0.0000   -0.0000   -0.0000
    24 N1     *f3-       0.0000   -0.0000    0.0002    0.0000   -0.0001    0.0000    0.0000   -0.0000    0.0000   -0.0000
    25 N1     *f2-       0.7118    0.0000    0.0000    0.0000   -0.0000    0.0000    0.0000   -0.0000   -0.0000    0.0000
    26 N1     *f1-      -0.0000   -0.0000    0.7066    0.0000   -0.7076    0.0000    0.0000   -0.0000    0.0000    0.0030
    27 N1     *f0        0.0000    0.0000    0.0000   -0.0000   -0.0000    0.0000   -0.7089    0.7046   -0.0004    0.0000
    28 N1     *f1+       0.0000   -0.0000    0.0000   -0.7066   -0.0000   -0.7076   -0.0000    0.0000    0.0000    0.0000
    29 N1     *f2+      -0.0000    0.7084    0.0000   -0.0000   -0.0000   -0.0000   -0.0000   -0.0000    0.0000   -0.0000
    30 N1     *f3+       0.0000    0.0000   -0.0000    0.0004    0.0000    0.0002   -0.0000    0.0000    0.0000    0.0000
    31 N2     1s        -0.0000   -0.0000   -0.0000   -0.0000    0.0000   -0.0000    0.0128   -0.0263    0.0645   -0.0000
    32 N2     2s        -0.0000   -0.0000   -0.0000   -0.0000    0.0000   -0.0000    0.0243   -0.0463    0.1292   -0.0000
    33 N2     *s         0.0000    0.0000    0.0000    0.0000   -0.0000    0.0000   -0.0198    0.0430   -0.0971    0.0000
    34 N2     *s         0.0000    0.0000    0.0000   -0.0000   -0.0000    0.0000   -0.0122    0.0160   -0.0695    0.0000
    35 N2     2px       -0.0000    0.0000   -0.0000    0.0195    0.0000    0.0198    0.0000   -0.0000   -0.0000   -0.0000
    36 N2     *px        0.0000   -0.0000    0.0000   -0.0208   -0.0000   -0.0217   -0.0000    0.0000    0.0000    0.0000
    37 N2     *px       -0.0000    0.0000   -0.0000    0.0015    0.0000    0.0025    0.0000   -0.0000   -0.0000   -0.0000
    38 N2     2py        0.0000    0.0000   -0.0195   -0.0000    0.0198   -0.0000   -0.0000    0.0000    0.0000   -0.0236
    39 N2     *py       -0.0000   -0.0000    0.0208    0.0000   -0.0217    0.0000    0.0000   -0.0000   -0.0000    0.0288
    40 N2     *py        0.0000    0.0000   -0.0015   -0.0000    0.0025   -0.0000   -0.0000    0.0000    0.0000   -0.0067
    41 N2     2pz        0.0000    0.0000    0.0000    0.0000   -0.0000    0.0000   -0.0477    0.0782   -0.0667    0.0000
    42 N2     *pz       -0.0000   -0.0000   -0.0000   -0.0000    0.0000   -0.0000    0.0509   -0.0872    0.0798   -0.0000
    43 N2     *pz        0.0000    0.0000    0.0000    0.0000   -0.0000    0.0000   -0.0026    0.0146   -0.0178    0.0000
    44 N2     *d2-      -0.0040   -0.0000   -0.0000   -0.0000   -0.0000    0.0000   -0.0000   -0.0000   -0.0000   -0.0000
    45 N2     *d2-       0.0019   -0.0000    0.0000    0.0000    0.0000   -0.0000    0.0000    0.0000    0.0000    0.0000
    46 N2     *d1-       0.0000    0.0000   -0.0036   -0.0000   -0.0073    0.0000    0.0000    0.0000    0.0000    0.8279
    47 N2     *d1-      -0.0000   -0.0000    0.0023    0.0000    0.0027   -0.0000   -0.0000   -0.0000   -0.0000   -0.4179
    48 N2     *d0        0.0000   -0.0000   -0.0000   -0.0000   -0.0000    0.0000   -0.0013   -0.0223    0.8256    0.0000
    49 N2     *d0       -0.0000    0.0000    0.0000    0.0000    0.0000   -0.0000    0.0014    0.0050   -0.4118   -0.0000
    50 N2     *d1+      -0.0000    0.0000   -0.0000    0.0036   -0.0000   -0.0073   -0.0000   -0.0000   -0.0000    0.0000
    51 N2     *d1+       0.0000   -0.0000    0.0000   -0.0023    0.0000    0.0027    0.0000    0.0000    0.0000   -0.0000
    52 N2     *d2+       0.0000   -0.0040   -0.0000    0.0000   -0.0000   -0.0000   -0.0000    0.0000    0.0000   -0.0000
    53 N2     *d2+       0.0000    0.0019    0.0000   -0.0000    0.0000    0.0000    0.0000   -0.0000   -0.0000    0.0000
    54 N2     *f3-       0.0000   -0.0000   -0.0002   -0.0000   -0.0001    0.0000    0.0000    0.0000    0.0000    0.0000
    55 N2     *f2-       0.7024    0.0000    0.0000    0.0000    0.0000   -0.0000    0.0000    0.0000   -0.0000   -0.0000
    56 N2     *f1-      -0.0000   -0.0000    0.7076    0.0000    0.7066   -0.0000   -0.0000   -0.0000    0.0000    0.0030
    57 N2     *f0       -0.0000    0.0000   -0.0000    0.0000    0.0000   -0.0000    0.7052    0.7083    0.0004   -0.0000
    58 N2     *f1+       0.0000   -0.0000    0.0000   -0.7076    0.0000    0.7066    0.0000    0.0000   -0.0000    0.0000
    59 N2     *f2+      -0.0000    0.7058    0.0000   -0.0000    0.0000    0.0000    0.0000   -0.0000   -0.0000   -0.0000
    60 N2     *f3+       0.0000    0.0000    0.0000   -0.0000   -0.0000   -0.0000    0.0000   -0.0000    0.0000   -0.0000


      Orbital                51        52        53        54        55        56        57        58        59        60
      Energy             0.0000    0.0000    0.0000    0.0000    0.0000    0.0000    0.0000    0.0000    0.0000    0.0000
      Occ. No.           0.0000    0.0000    0.0000    0.0000    0.0000    0.0000    0.0000    0.0000    0.0000    0.0000

     1 N1     1s        -0.0000   -0.0000   -0.0000    0.0000    0.0000   -0.0000   -0.0000    0.1534    1.6163   -1.6916
     2 N1     2s        -0.0000   -0.0000   -0.0000    0.0000    0.0000   -0.0000   -0.0000    0.3058    3.5033   -3.7530
     3 N1     *s         0.0000    0.0000    0.0000   -0.0000   -0.0000    0.0000   -0.0000   -0.2327   -2.3034    2.3623
     4 N1     *s         0.0000    0.0000    0.0000   -0.0000   -0.0000    0.0000   -0.0000   -0.1577   -2.1709    2.4411
     5 N1     2px       -0.0237   -0.0000    0.0000    0.0000   -0.0000    0.0000   -0.0367   -0.0000    0.0000   -0.0000
     6 N1     *px        0.0289    0.0000   -0.0000   -0.0000    0.0000   -0.0000    0.0413    0.0000   -0.0000    0.0000
     7 N1     *px       -0.0067   -0.0000    0.0000    0.0000   -0.0000    0.0000   -0.0070    0.0000    0.0000   -0.0000
     8 N1     2py        0.0000    0.0000    0.0000   -0.0000   -0.0000   -0.0367   -0.0000    0.0000   -0.0000    0.0000
     9 N1     *py       -0.0000   -0.0000   -0.0000    0.0000    0.0000    0.0413    0.0000   -0.0000    0.0000   -0.0000
    10 N1     *py        0.0000   -0.0000    0.0000   -0.0000   -0.0000   -0.0070   -0.0000   -0.0000    0.0000   -0.0000
    11 N1     2pz       -0.0000   -0.0000    0.0000    0.0000    0.0000   -0.0000   -0.0000    0.1399    0.0491    0.1891
    12 N1     *pz        0.0000    0.0000   -0.0000   -0.0000   -0.0000    0.0000    0.0000   -0.1664   -0.0661   -0.2508
    13 N1     *pz       -0.0000   -0.0000    0.0000    0.0000    0.0000   -0.0000   -0.0000    0.0463    0.0361    0.1237
    14 N1     *d2-      -0.0000    0.8233    0.0000   -0.8325   -0.0000    0.0000   -0.0000    0.0000   -0.0000    0.0000
    15 N1     *d2-       0.0000   -0.4175   -0.0000    0.4224    0.0000   -0.0000    0.0000   -0.0000    0.0000   -0.0000
    16 N1     *d1-       0.0000   -0.0000   -0.0000   -0.0000   -0.0000    0.8288    0.0000    0.0000    0.0000   -0.0000
    17 N1     *d1-      -0.0000    0.0000    0.0000    0.0000    0.0000   -0.4233   -0.0000   -0.0000   -0.0000    0.0000
    18 N1     *d0        0.0000   -0.0000   -0.0000    0.0000   -0.0000   -0.0000    0.0000   -0.8255   -0.0427   -0.0977
    19 N1     *d0       -0.0000    0.0000    0.0000   -0.0000    0.0000    0.0000   -0.0000    0.4367    0.0365    0.0919
    20 N1     *d1+      -0.8271    0.0000   -0.0000    0.0000   -0.0000   -0.0000    0.8288   -0.0000   -0.0000    0.0000
    21 N1     *d1+       0.4175   -0.0000    0.0000   -0.0000    0.0000    0.0000   -0.4233    0.0000    0.0000    0.0000
    22 N1     *d2+       0.0000   -0.0000    0.7820    0.0000   -0.8714    0.0000    0.0000    0.0000    0.0000   -0.0000
    23 N1     *d2+      -0.0000    0.0000   -0.3965   -0.0000    0.4421   -0.0000   -0.0000   -0.0000   -0.0000    0.0000
    24 N1     *f3-       0.0000   -0.0000    0.0000   -0.0000   -0.0000   -0.0000   -0.0000    0.0000   -0.0000    0.0000
    25 N1     *f2-       0.0000   -0.0032   -0.0000    0.0035    0.0000   -0.0000    0.0000   -0.0000   -0.0000   -0.0000
    26 N1     *f1-      -0.0000    0.0000    0.0000   -0.0000    0.0000   -0.0063   -0.0000   -0.0000    0.0000    0.0000
    27 N1     *f0       -0.0000   -0.0000   -0.0000    0.0000    0.0000   -0.0000    0.0000    0.0175    0.0082    0.0184
    28 N1     *f1+       0.0030   -0.0000    0.0000   -0.0000    0.0000    0.0000   -0.0063    0.0000    0.0000   -0.0000
    29 N1     *f2+       0.0000    0.0000   -0.0031   -0.0000    0.0036   -0.0000    0.0000   -0.0000   -0.0000    0.0000
    30 N1     *f3+       0.0000   -0.0000   -0.0000    0.0000   -0.0000   -0.0000    0.0000    0.0000   -0.0000    0.0000
    31 N2     1s         0.0000    0.0000   -0.0000    0.0000   -0.0000   -0.0000    0.0000   -0.1536    1.6184    1.6895
    32 N2     2s         0.0000    0.0000   -0.0000    0.0000   -0.0000   -0.0000    0.0000   -0.3061    3.5080    3.7485
    33 N2     *s        -0.0000   -0.0000    0.0000   -0.0000    0.0000    0.0000   -0.0000    0.2329   -2.3064   -2.3594
    34 N2     *s        -0.0000    0.0000    0.0000   -0.0000    0.0000    0.0000   -0.0000    0.1579   -2.1740   -2.4383
    35 N2     2px       -0.0236    0.0000   -0.0000    0.0000   -0.0000   -0.0000    0.0367   -0.0000   -0.0000   -0.0000
    36 N2     *px        0.0288   -0.0000    0.0000   -0.0000    0.0000    0.0000   -0.0413   -0.0000    0.0000    0.0000
    37 N2     *px       -0.0067    0.0000   -0.0000    0.0000   -0.0000   -0.0000    0.0070   -0.0000   -0.0000   -0.0000
    38 N2     2py        0.0000   -0.0000   -0.0000   -0.0000   -0.0000    0.0367    0.0000    0.0000   -0.0000   -0.0000
    39 N2     *py       -0.0000    0.0000    0.0000    0.0000    0.0000   -0.0413   -0.0000   -0.0000    0.0000    0.0000
    40 N2     *py        0.0000   -0.0000   -0.0000   -0.0000   -0.0000    0.0070    0.0000    0.0000    0.0000    0.0000
    41 N2     2pz       -0.0000   -0.0000    0.0000   -0.0000    0.0000    0.0000   -0.0000    0.1399   -0.0489    0.1892
    42 N2     *pz        0.0000    0.0000   -0.0000    0.0000   -0.0000   -0.0000    0.0000   -0.1664    0.0658   -0.2509
    43 N2     *pz       -0.0000   -0.0000    0.0000   -0.0000    0.0000   -0.0000   -0.0000    0.0463   -0.0359    0.1237
    44 N2     *d2-       0.0000    0.8324    0.0000    0.8234    0.0000    0.0000   -0.0000    0.0000    0.0000    0.0000
    45 N2     *d2-      -0.0000   -0.4221   -0.0000   -0.4178   -0.0000   -0.0000    0.0000   -0.0000   -0.0000   -0.0000
    46 N2     *d1-      -0.0000   -0.0000   -0.0000    0.0000    0.0000    0.8280    0.0000   -0.0000    0.0000    0.0000
    47 N2     *d1-       0.0000    0.0000    0.0000   -0.0000   -0.0000   -0.4229   -0.0000    0.0000   -0.0000   -0.0000
    48 N2     *d0        0.0000   -0.0000   -0.0000    0.0000    0.0000   -0.0000    0.0000    0.8249   -0.0425    0.0977
    49 N2     *d0       -0.0000    0.0000    0.0000   -0.0000   -0.0000    0.0000   -0.0000   -0.4364    0.0363   -0.0919
    50 N2     *d1+       0.8279    0.0000   -0.0000   -0.0000    0.0000   -0.0000    0.8280    0.0000   -0.0000   -0.0000
    51 N2     *d1+      -0.4179   -0.0000    0.0000    0.0000   -0.0000    0.0000   -0.4229   -0.0000    0.0000    0.0000
    52 N2     *d2+      -0.0000   -0.0000    0.8713   -0.0000    0.7821    0.0000    0.0000   -0.0000    0.0000    0.0000
    53 N2     *d2+       0.0000    0.0000   -0.4418    0.0000   -0.3968   -0.0000   -0.0000    0.0000   -0.0000   -0.0000
    54 N2     *f3-      -0.0000    0.0000    0.0000   -0.0000    0.0000    0.0000    0.0000   -0.0000    0.0000   -0.0000
    55 N2     *f2-       0.0000    0.0033    0.0000    0.0035    0.0000    0.0000    0.0000    0.0000   -0.0000   -0.0000
    56 N2     *f1-      -0.0000    0.0000   -0.0000   -0.0000    0.0000    0.0063    0.0000    0.0000   -0.0000    0.0000
    57 N2     *f0       -0.0000   -0.0000    0.0000    0.0000    0.0000   -0.0000   -0.0000    0.0174   -0.0082    0.0184
    58 N2     *f1+       0.0030    0.0000   -0.0000   -0.0000   -0.0000   -0.0000    0.0063    0.0000   -0.0000    0.0000
    59 N2     *f2+      -0.0000   -0.0000    0.0034   -0.0000    0.0033   -0.0000    0.0000   -0.0000    0.0000    0.0000
    60 N2     *f3+      -0.0000   -0.0000    0.0000   -0.0000   -0.0000    0.0000   -0.0000   -0.0000   -0.0000   -0.0000
--

      Von Neumann Entropy (Root   1) =  2.99103


      Mulliken population analysis for root number:  1
      -----------------------------------------------


++    Molecular charges:
      ------------------

      Mulliken charges per centre and basis function type
      ---------------------------------------------------

                N1      N2    
      1s       2.0016  2.0016
      2s       2.0743  2.0744
      2px      0.9205  0.9205
      2pz      0.9092  0.9092
      2py      0.9205  0.9205
      *s      -0.0746 -0.0746
      *px      0.0794  0.0794
      *pz      0.0888  0.0888
      *py      0.0794  0.0794
      *d2+     0.0000  0.0000
      *d1+     0.0001  0.0001
      *d0      0.0006  0.0006
      *d1-     0.0001  0.0001
      *d2-     0.0000  0.0000
      *f3+     0.0000  0.0000
      *f2+     0.0000  0.0000
      *f1+     0.0000  0.0000
      *f0      0.0000  0.0000
      *f1-     0.0000  0.0000
      *f2-     0.0000  0.0000
      *f3-     0.0000  0.0000
      Total    7.0000  7.0000

      N-E     -0.0000  0.0000

      Total electronic charge=   14.000000

      Total            charge=   -0.000000
--



      Expectation values of various properties for root number:  1
      -----------------------------------------------------------

      Properties not supported for DMRGSCF 

++    Molecular properties:
      ---------------------

      Charge (e):
                      =   -0.0000
      Dipole Moment (Debye):
      Origin of the operator (Ang)=    0.0000    0.0000    0.0000
                   X= -7.3554E-10               Y=  5.8411E-08               Z=  8.6350E-06           Total=  8.6352E-06
      Quadrupole Moment (Debye*Ang):
      Origin of the operator (Ang)=    0.0000    0.0000    1.6000
                  XX= -1.2006E+01              XY= -1.4693E-10              XZ= -3.3271E-09              YY= -1.2006E+01
                  YZ=  3.3557E-07              ZZ= -1.1711E+01
      In traceless form (Debye*Ang)
                  XX= -1.4763E-01              XY= -2.2039E-10              XZ= -4.9906E-09              YY= -1.4763E-01
                  YZ=  5.0335E-07              ZZ=  2.9526E-01
--


      Input file to MOLDEN was generated!

      Average orbitals are written to the RASORB file
      Natural orbitals for root   1 are written to the RASORB.1 file
      Spin density orbitals for root   1 are written to the SPDORB.1 file

--- Stop Module: dmrgscf at Tue Apr  9 00:43:13 2024 /rc=_RC_ALL_IS_WELL_ ---
*** files: n2.GssOrb n2.guessorb.h5 n2.rasscf.molden n2.guessorb.molden n2.scf.molden n2.RasOrb n2.RasOrb.1 n2.dmrgscf.h5 n2.ScfOrb n2.scf.h5 n2.SpdOrb.1 xmldump
    saved to directory /public/home/xzzeng/work/HQC/N2/cc-pvtz/NO/PES/entropy/3.2/results/work_dir/n2/dmrg
--- Module dmrgscf spent 4 seconds ---

.##################.
.# Happy landing! #.
.##################.

    Timing: Wall=4.88 User=3.11 System=0.17
