[Molden Format]
[N_Atoms]
                    2
[Atoms] (AU)
N1          1      7           0.00000000      0.00000000      0.00000000
N2          2      7           0.00000000      0.00000000      6.04712360
[5D]
[7F]
[Charge] (Mulliken)
  -3.8878851249535273E-007
   3.8878837127498400E-007
[GTO] (AU)
   1
   s  10
  1.142000000E+04  5.229996559E-04
  1.712000000E+03  4.044997339E-03
  3.893000000E+02  2.077498633E-02
  1.100000000E+02  8.072694689E-02
  3.557000000E+01  2.330738467E-01
  1.254000000E+01  4.335007148E-01
  4.644000000E+00  3.474717714E-01
  1.293000000E+00  4.126197285E-02
  5.118000000E-01 -8.507994403E-03
  1.787000000E-01  2.383998432E-03
   s  10
  1.142000000E+04 -1.149999544E-04
  1.712000000E+03 -8.949996452E-04
  3.893000000E+02 -4.623998167E-03
  1.100000000E+02 -1.852799265E-02
  3.557000000E+01 -5.733897727E-02
  1.254000000E+01 -1.320759476E-01
  4.644000000E+00 -1.725099316E-01
  1.293000000E+00  1.518139398E-01
  5.118000000E-01  5.999437621E-01
  1.787000000E-01  3.874618464E-01
   s   1
  1.293000000E+00  1.000000000E+00
   s   1
  1.787000000E-01  1.000000000E+00
   p   5
  2.663000000E+01  1.467000345E-02
  5.948000000E+00  9.176402155E-02
  1.742000000E+00  2.986830701E-01
  5.550000000E-01  4.984871171E-01
  1.725000000E-01  3.370230791E-01
   p   1
  5.550000000E-01  1.000000000E+00
   p   1
  1.725000000E-01  1.000000000E+00
   d   1
  1.654000000E+00  1.000000000E+00
   d   1
  4.690000000E-01  1.000000000E+00
   f   1
  1.093000000E+00  1.000000000E+00
 
   2
   s  10
  1.142000000E+04  5.229996559E-04
  1.712000000E+03  4.044997339E-03
  3.893000000E+02  2.077498633E-02
  1.100000000E+02  8.072694689E-02
  3.557000000E+01  2.330738467E-01
  1.254000000E+01  4.335007148E-01
  4.644000000E+00  3.474717714E-01
  1.293000000E+00  4.126197285E-02
  5.118000000E-01 -8.507994403E-03
  1.787000000E-01  2.383998432E-03
   s  10
  1.142000000E+04 -1.149999544E-04
  1.712000000E+03 -8.949996452E-04
  3.893000000E+02 -4.623998167E-03
  1.100000000E+02 -1.852799265E-02
  3.557000000E+01 -5.733897727E-02
  1.254000000E+01 -1.320759476E-01
  4.644000000E+00 -1.725099316E-01
  1.293000000E+00  1.518139398E-01
  5.118000000E-01  5.999437621E-01
  1.787000000E-01  3.874618464E-01
   s   1
  1.293000000E+00  1.000000000E+00
   s   1
  1.787000000E-01  1.000000000E+00
   p   5
  2.663000000E+01  1.467000345E-02
  5.948000000E+00  9.176402155E-02
  1.742000000E+00  2.986830701E-01
  5.550000000E-01  4.984871171E-01
  1.725000000E-01  3.370230791E-01
   p   1
  5.550000000E-01  1.000000000E+00
   p   1
  1.725000000E-01  1.000000000E+00
   d   1
  1.654000000E+00  1.000000000E+00
   d   1
  4.690000000E-01  1.000000000E+00
   f   1
  1.093000000E+00  1.000000000E+00
 
[MO]
Sym=     1a  
Ene=     0.0000
Spin= Alpha
Occup=    0.00000
   1         0.64970526
   2         0.00035741
   3        -0.00099942
   4        -0.00022127
   5        -0.00000000
   6         0.00000000
   7         0.00071708
   8         0.00000000
   9        -0.00000000
  10        -0.00044497
  11        -0.00000000
  12        -0.00000000
  13        -0.00023658
  14        -0.00000459
  15         0.00000000
  16        -0.00000000
  17        -0.00000000
  18         0.00000000
  19        -0.00002300
  20         0.00000000
  21        -0.00000000
  22         0.00000000
  23        -0.00000000
  24        -0.00000061
  25         0.00000000
  26         0.00000000
  27         0.00000000
  28        -0.00000000
  29         0.00000000
  30         0.00000000
  31         0.76135344
  32         0.00036913
  33        -0.00115618
  34        -0.00021328
  35         0.00000000
  36        -0.00000000
  37        -0.00084800
  38        -0.00000000
  39         0.00000000
  40         0.00055741
  41         0.00000000
  42         0.00000000
  43         0.00024257
  44        -0.00001094
  45         0.00000000
  46        -0.00000000
  47        -0.00000000
  48        -0.00000000
  49        -0.00001555
  50        -0.00000000
  51        -0.00000000
  52         0.00000000
  53         0.00000000
  54        -0.00000058
  55        -0.00000000
  56         0.00000000
  57        -0.00000000
  58         0.00000000
  59        -0.00000000
  60        -0.00000000
Sym=     2a  
Ene=     0.0000
Spin= Alpha
Occup=    0.00000
   1         0.76123111
   2         0.00000367
   3        -0.00102413
   4         0.00010322
   5         0.00000000
   6         0.00000000
   7         0.00089126
   8        -0.00000000
   9        -0.00000000
  10        -0.00075395
  11         0.00000000
  12        -0.00000000
  13        -0.00005323
  14        -0.00003855
  15         0.00000000
  16        -0.00000000
  17        -0.00000000
  18        -0.00000000
  19         0.00004544
  20        -0.00000000
  21        -0.00000000
  22         0.00000000
  23         0.00000000
  24         0.00000709
  25        -0.00000000
  26        -0.00000000
  27         0.00000000
  28        -0.00000000
  29        -0.00000000
  30         0.00000000
  31        -0.64957409
  32         0.00004056
  33         0.00086067
  34        -0.00012858
  35        -0.00000000
  36         0.00000000
  37         0.00076753
  38         0.00000000
  39        -0.00000000
  40        -0.00067485
  41        -0.00000000
  42        -0.00000000
  43        -0.00001510
  44         0.00003773
  45        -0.00000000
  46         0.00000000
  47        -0.00000000
  48        -0.00000000
  49        -0.00004871
  50         0.00000000
  51         0.00000000
  52        -0.00000000
  53        -0.00000000
  54         0.00000717
  55         0.00000000
  56         0.00000000
  57         0.00000000
  58        -0.00000000
  59         0.00000000
  60        -0.00000000
Sym=     3a  
Ene=     0.0000
Spin= Alpha
Occup=    0.00000
   1         0.00041821
   2         0.72476072
   3         0.00883728
   4        -0.02978592
   5         0.00000000
   6         0.00000000
   7         0.00050074
   8        -0.00000000
   9        -0.00000000
  10        -0.00073210
  11         0.00000000
  12         0.00000000
  13         0.00497068
  14        -0.00011183
  15         0.00000000
  16        -0.00000000
  17        -0.00000000
  18        -0.00000000
  19         0.00089489
  20        -0.00000000
  21        -0.00000000
  22         0.00000000
  23        -0.00000000
  24         0.00008288
  25        -0.00000000
  26        -0.00000000
  27         0.00000001
  28        -0.00000000
  29        -0.00000000
  30         0.00000000
  31         0.00042584
  32         0.72486689
  33         0.00882865
  34        -0.02980550
  35         0.00000000
  36         0.00000000
  37        -0.00049771
  38        -0.00000000
  39        -0.00000000
  40         0.00073216
  41         0.00000000
  42         0.00000000
  43        -0.00497002
  44        -0.00011209
  45         0.00000000
  46        -0.00000000
  47        -0.00000000
  48         0.00000000
  49         0.00089493
  50         0.00000000
  51        -0.00000000
  52         0.00000000
  53        -0.00000000
  54        -0.00008357
  55        -0.00000000
  56         0.00000000
  57        -0.00000001
  58        -0.00000000
  59        -0.00000000
  60         0.00000000
Sym=     4a  
Ene=     0.0000
Spin= Alpha
Occup=    0.00000
   1        -0.00279014
   2        -0.74033435
   3        -0.00836408
   4         0.04162490
   5        -0.00000000
   6        -0.00000000
   7         0.02625769
   8         0.00000000
   9        -0.00000000
  10         0.00013542
  11        -0.00000000
  12         0.00000000
  13         0.00114227
  14         0.00016937
  15        -0.00000000
  16         0.00000000
  17         0.00000000
  18         0.00000000
  19         0.00119721
  20         0.00000000
  21         0.00000000
  22        -0.00000000
  23         0.00000000
  24         0.00006622
  25         0.00000000
  26         0.00000000
  27        -0.00000000
  28        -0.00000000
  29         0.00000000
  30         0.00000000
  31         0.00279740
  32         0.74026898
  33         0.00835332
  34        -0.04163583
  35         0.00000000
  36         0.00000000
  37         0.02625750
  38        -0.00000000
  39         0.00000000
  40         0.00013632
  41         0.00000000
  42        -0.00000000
  43         0.00114237
  44        -0.00016962
  45         0.00000000
  46        -0.00000000
  47        -0.00000000
  48         0.00000000
  49        -0.00119709
  50        -0.00000000
  51        -0.00000000
  52         0.00000000
  53        -0.00000000
  54         0.00006548
  55        -0.00000000
  56         0.00000000
  57        -0.00000000
  58        -0.00000000
  59        -0.00000000
  60        -0.00000000
Sym=     5a  
Ene=     0.0000
Spin= Alpha
Occup=    0.00000
   1         0.00889708
   2         0.06387729
   3        -0.00180658
   4        -0.04438802
   5        -0.00000000
   6         0.00000000
   7        -0.62253739
   8         0.00000000
   9        -0.00000000
  10         0.01868663
  11        -0.00000000
  12         0.00000000
  13        -0.09993780
  14        -0.00064099
  15         0.00000000
  16         0.00000000
  17         0.00000000
  18         0.00000000
  19        -0.00959676
  20        -0.00000000
  21        -0.00000000
  22        -0.00000001
  23        -0.00000000
  24        -0.00049652
  25         0.00000000
  26        -0.00000000
  27        -0.00000001
  28        -0.00000000
  29         0.00000000
  30         0.00000000
  31         0.00889876
  32         0.06388140
  33        -0.00180837
  34        -0.04439258
  35        -0.00000000
  36        -0.00000000
  37         0.62253681
  38         0.00000000
  39         0.00000000
  40        -0.01868094
  41        -0.00000000
  42         0.00000000
  43         0.09994349
  44        -0.00064103
  45        -0.00000000
  46         0.00000000
  47         0.00000000
  48        -0.00000000
  49        -0.00959680
  50         0.00000000
  51        -0.00000000
  52        -0.00000001
  53        -0.00000000
  54         0.00049623
  55         0.00000000
  56        -0.00000000
  57         0.00000001
  58         0.00000000
  59        -0.00000000
  60        -0.00000000
Sym=     6a  
Ene=     0.0000
Spin= Alpha
Occup=    0.00000
   1        -0.00000000
   2        -0.00000000
   3         0.00000000
   4         0.00000000
   5        -0.00000001
   6         0.64914376
   7        -0.00000000
   8         0.00000000
   9        -0.01947168
  10         0.00000000
  11        -0.00000000
  12         0.09305859
  13         0.00000000
  14        -0.00000000
  15        -0.00000000
  16         0.00037285
  17        -0.00000000
  18        -0.00000000
  19         0.00000000
  20        -0.00000000
  21         0.00568635
  22         0.00000000
  23         0.00000000
  24        -0.00000000
  25        -0.00000000
  26         0.00032576
  27        -0.00000000
  28        -0.00000000
  29         0.00000000
  30         0.00000001
  31        -0.00000000
  32         0.00000000
  33         0.00000000
  34         0.00000000
  35        -0.00000001
  36         0.64914283
  37        -0.00000000
  38         0.00000000
  39        -0.01947561
  40         0.00000000
  41        -0.00000000
  42         0.09305725
  43        -0.00000000
  44         0.00000000
  45         0.00000000
  46        -0.00037280
  47         0.00000000
  48         0.00000000
  49        -0.00000000
  50         0.00000000
  51        -0.00568639
  52         0.00000000
  53        -0.00000000
  54        -0.00000000
  55        -0.00000000
  56         0.00032586
  57        -0.00000000
  58        -0.00000000
  59        -0.00000000
  60        -0.00000001
Sym=     7a  
Ene=     0.0000
Spin= Alpha
Occup=    0.00000
   1         0.00000000
   2         0.00000000
   3        -0.00000000
   4        -0.00000000
   5         0.64914370
   6         0.00000001
   7        -0.00000000
   8        -0.01947168
   9        -0.00000000
  10         0.00000000
  11         0.09305859
  12         0.00000000
  13        -0.00000000
  14        -0.00000000
  15         0.00037285
  16         0.00000000
  17         0.00000000
  18         0.00000000
  19        -0.00000000
  20         0.00568635
  21         0.00000000
  22        -0.00000000
  23        -0.00000000
  24         0.00000000
  25         0.00032576
  26         0.00000000
  27         0.00000000
  28         0.00000000
  29         0.00000000
  30         0.00000000
  31         0.00000000
  32         0.00000000
  33        -0.00000000
  34        -0.00000000
  35         0.64914289
  36         0.00000001
  37         0.00000000
  38        -0.01947561
  39        -0.00000000
  40        -0.00000000
  41         0.09305725
  42         0.00000000
  43         0.00000000
  44         0.00000000
  45        -0.00037280
  46        -0.00000000
  47        -0.00000000
  48        -0.00000000
  49        -0.00000000
  50        -0.00568639
  51        -0.00000000
  52         0.00000000
  53        -0.00000000
  54        -0.00000000
  55         0.00032586
  56         0.00000000
  57         0.00000000
  58         0.00000000
  59         0.00000002
  60        -0.00000000
Sym=     8a  
Ene=     0.0000
Spin= Alpha
Occup=    0.00000
   1         0.00000000
   2         0.00000000
   3        -0.00000000
   4        -0.00000000
   5         0.00000004
   6        -0.65781120
   7        -0.00000000
   8        -0.00000000
   9         0.01721449
  10         0.00000000
  11         0.00000001
  12        -0.08896073
  13        -0.00000000
  14        -0.00000000
  15         0.00000000
  16        -0.00060027
  17        -0.00000000
  18         0.00000000
  19        -0.00000000
  20        -0.00000000
  21         0.00659801
  22        -0.00000000
  23        -0.00000000
  24         0.00000000
  25        -0.00000000
  26         0.00036158
  27         0.00000000
  28        -0.00000000
  29         0.00000000
  30        -0.00000000
  31         0.00000000
  32         0.00000000
  33        -0.00000000
  34        -0.00000000
  35        -0.00000004
  36         0.65782091
  37         0.00000000
  38         0.00000000
  39        -0.01721890
  40        -0.00000000
  41        -0.00000001
  42         0.08896084
  43         0.00000000
  44        -0.00000000
  45         0.00000000
  46        -0.00060027
  47         0.00000000
  48        -0.00000000
  49        -0.00000000
  50        -0.00000000
  51         0.00659814
  52         0.00000000
  53         0.00000000
  54        -0.00000000
  55         0.00000000
  56        -0.00036159
  57        -0.00000000
  58        -0.00000000
  59        -0.00000000
  60         0.00000000
Sym=     9a  
Ene=     0.0000
Spin= Alpha
Occup=    0.00000
   1         0.00000000
   2        -0.00000000
   3        -0.00000000
   4        -0.00000000
   5        -0.65781125
   6        -0.00000004
   7        -0.00000000
   8         0.01721449
   9         0.00000000
  10         0.00000000
  11        -0.08896074
  12        -0.00000001
  13        -0.00000000
  14         0.00000000
  15        -0.00060027
  16        -0.00000000
  17        -0.00000000
  18         0.00000000
  19         0.00000000
  20         0.00659801
  21         0.00000000
  22         0.00000000
  23         0.00000000
  24         0.00000000
  25         0.00036158
  26         0.00000000
  27        -0.00000000
  28        -0.00000000
  29        -0.00000000
  30         0.00000000
  31         0.00000000
  32         0.00000000
  33        -0.00000000
  34        -0.00000000
  35         0.65782085
  36         0.00000004
  37        -0.00000000
  38        -0.01721890
  39        -0.00000000
  40         0.00000000
  41         0.08896083
  42         0.00000001
  43        -0.00000000
  44        -0.00000000
  45        -0.00060027
  46        -0.00000000
  47         0.00000000
  48        -0.00000000
  49        -0.00000000
  50         0.00659814
  51         0.00000000
  52        -0.00000000
  53        -0.00000000
  54         0.00000000
  55        -0.00036159
  56        -0.00000000
  57         0.00000000
  58         0.00000000
  59        -0.00000000
  60         0.00000000
Sym=    10a  
Ene=     0.0000
Spin= Alpha
Occup=    0.00000
   1         0.00554325
   2         0.06944599
   3        -0.00139658
   4        -0.02616780
   5        -0.00000000
   6         0.00000000
   7         0.67354823
   8         0.00000000
   9        -0.00000000
  10        -0.01885303
  11        -0.00000000
  12         0.00000000
  13         0.09499446
  14         0.00035771
  15         0.00000000
  16         0.00000000
  17         0.00000000
  18         0.00000000
  19        -0.00823105
  20        -0.00000000
  21        -0.00000000
  22         0.00000000
  23         0.00000000
  24        -0.00041206
  25         0.00000000
  26         0.00000000
  27        -0.00000000
  28        -0.00000000
  29         0.00000000
  30         0.00000000
  31        -0.00554386
  32        -0.06944789
  33         0.00139738
  34         0.02616907
  35         0.00000000
  36         0.00000000
  37         0.67352886
  38        -0.00000000
  39        -0.00000000
  40        -0.01884649
  41         0.00000000
  42         0.00000000
  43         0.09499984
  44        -0.00035763
  45         0.00000000
  46        -0.00000000
  47        -0.00000000
  48         0.00000000
  49         0.00823084
  50        -0.00000000
  51        -0.00000000
  52        -0.00000000
  53         0.00000000
  54        -0.00041209
  55         0.00000000
  56         0.00000000
  57        -0.00000000
  58         0.00000000
  59        -0.00000000
  60         0.00000000
Sym=    11a  
Ene=     0.0000
Spin= Alpha
Occup=    0.00000
   1        -0.18027745
   2        -0.90225047
   3         0.05322813
   4         0.92550798
   5        -0.00000000
   6         0.00000000
   7        -0.45537903
   8        -0.00000000
   9         0.00000000
  10        -0.24406553
  11         0.00000000
  12        -0.00000000
  13         0.71953342
  14        -0.00284940
  15         0.00000000
  16        -0.00000000
  17        -0.00000000
  18        -0.00000000
  19         0.04998878
  20         0.00000000
  21         0.00000000
  22         0.00000003
  23        -0.00000000
  24         0.00174189
  25         0.00000000
  26        -0.00000000
  27         0.00000001
  28         0.00000000
  29         0.00000000
  30         0.00000000
  31        -0.18033248
  32        -0.90247918
  33         0.05326086
  34         0.92573935
  35        -0.00000000
  36         0.00000000
  37         0.45533151
  38        -0.00000000
  39         0.00000000
  40         0.24404128
  41         0.00000000
  42         0.00000000
  43        -0.71944030
  44        -0.00284848
  45        -0.00000000
  46        -0.00000000
  47        -0.00000000
  48        -0.00000000
  49         0.04998977
  50        -0.00000000
  51         0.00000000
  52         0.00000003
  53         0.00000000
  54        -0.00174142
  55        -0.00000000
  56         0.00000000
  57        -0.00000001
  58         0.00000000
  59         0.00000000
  60        -0.00000000
Sym=    12a  
Ene=     0.0000
Spin= Alpha
Occup=    0.00000
   1        -0.00000000
   2        -0.00000000
   3         0.00000000
   4         0.00000000
   5         0.00000002
   6        -0.49503864
   7        -0.00000000
   8         0.00000001
   9        -0.34254534
  10         0.00000000
  11        -0.00000004
  12         0.98891037
  13        -0.00000000
  14        -0.00000000
  15         0.00000000
  16        -0.00177120
  17        -0.00000000
  18        -0.00000000
  19         0.00000000
  20        -0.00000000
  21         0.02026455
  22         0.00000000
  23         0.00000000
  24         0.00000000
  25        -0.00000000
  26         0.00087335
  27         0.00000000
  28        -0.00000000
  29        -0.00000000
  30         0.00000002
  31         0.00000000
  32         0.00000000
  33        -0.00000000
  34        -0.00000000
  35         0.00000002
  36        -0.49505614
  37         0.00000000
  38         0.00000001
  39        -0.34255135
  40         0.00000000
  41        -0.00000004
  42         0.98893956
  43        -0.00000000
  44        -0.00000000
  45        -0.00000000
  46         0.00177169
  47        -0.00000000
  48         0.00000000
  49         0.00000000
  50         0.00000000
  51        -0.02026472
  52         0.00000000
  53        -0.00000000
  54         0.00000000
  55        -0.00000000
  56         0.00087373
  57         0.00000000
  58        -0.00000000
  59        -0.00000000
  60        -0.00000001
Sym=    13a  
Ene=     0.0000
Spin= Alpha
Occup=    0.00000
   1         0.00000000
   2         0.00000000
   3        -0.00000000
   4        -0.00000000
   5        -0.49503863
   6        -0.00000002
   7         0.00000000
   8        -0.34254534
   9        -0.00000001
  10         0.00000000
  11         0.98891036
  12         0.00000004
  13        -0.00000000
  14         0.00000000
  15        -0.00177120
  16        -0.00000000
  17        -0.00000000
  18         0.00000000
  19        -0.00000000
  20         0.02026455
  21         0.00000000
  22         0.00000000
  23        -0.00000000
  24         0.00000000
  25         0.00087335
  26         0.00000000
  27        -0.00000000
  28        -0.00000000
  29         0.00000001
  30         0.00000000
  31         0.00000000
  32         0.00000000
  33        -0.00000000
  34        -0.00000000
  35        -0.49505614
  36        -0.00000002
  37        -0.00000000
  38        -0.34255135
  39        -0.00000001
  40        -0.00000000
  41         0.98893957
  42         0.00000004
  43         0.00000000
  44         0.00000000
  45         0.00177169
  46         0.00000000
  47         0.00000000
  48         0.00000000
  49        -0.00000000
  50        -0.02026472
  51        -0.00000000
  52         0.00000000
  53        -0.00000000
  54         0.00000000
  55         0.00087373
  56         0.00000000
  57        -0.00000000
  58        -0.00000000
  59         0.00000004
  60        -0.00000000
Sym=    14a  
Ene=     0.0000
Spin= Alpha
Occup=    0.00000
   1         0.23145753
   2         1.13708920
   3        -0.06385503
   4        -1.20631289
   5        -0.00000000
   6        -0.00000000
   7        -0.34629911
   8        -0.00000000
   9        -0.00000000
  10        -0.27661380
  11         0.00000000
  12         0.00000000
  13         0.79402642
  14         0.00021854
  15         0.00000000
  16         0.00000000
  17        -0.00000000
  18        -0.00000000
  19        -0.02187507
  20        -0.00000000
  21        -0.00000000
  22         0.00000001
  23         0.00000000
  24        -0.00063613
  25        -0.00000000
  26        -0.00000000
  27         0.00000000
  28         0.00000000
  29         0.00000000
  30        -0.00000000
  31        -0.23161406
  32        -1.13778269
  33         0.06392388
  34         1.20705249
  35         0.00000000
  36        -0.00000000
  37        -0.34651697
  38         0.00000000
  39        -0.00000000
  40        -0.27675405
  41        -0.00000000
  42         0.00000000
  43         0.79443981
  44        -0.00021848
  45        -0.00000000
  46        -0.00000000
  47         0.00000000
  48        -0.00000000
  49         0.02187043
  50        -0.00000000
  51        -0.00000000
  52        -0.00000001
  53         0.00000000
  54        -0.00063570
  55         0.00000000
  56        -0.00000000
  57         0.00000000
  58        -0.00000000
  59        -0.00000000
  60         0.00000000
Sym=    15a  
Ene=     0.0000
Spin= Alpha
Occup=    0.00000
   1         0.00000000
   2         0.00000000
   3        -0.00000000
   4        -0.00000000
   5         0.00000003
   6         0.50263490
   7        -0.00000000
   8         0.00000002
   9         0.34505074
  10        -0.00000000
  11        -0.00000006
  12        -1.04699432
  13         0.00000000
  14         0.00000000
  15        -0.00000000
  16        -0.00185029
  17         0.00000000
  18        -0.00000000
  19        -0.00000000
  20         0.00000000
  21         0.02836935
  22        -0.00000000
  23         0.00000000
  24        -0.00000000
  25         0.00000000
  26         0.00096961
  27        -0.00000000
  28         0.00000000
  29        -0.00000000
  30         0.00000002
  31         0.00000000
  32         0.00000000
  33        -0.00000000
  34        -0.00000000
  35        -0.00000003
  36        -0.50262488
  37         0.00000000
  38        -0.00000002
  39        -0.34503820
  40         0.00000000
  41         0.00000006
  42         1.04696794
  43        -0.00000000
  44         0.00000000
  45        -0.00000000
  46        -0.00184992
  47        -0.00000000
  48        -0.00000000
  49        -0.00000000
  50         0.00000000
  51         0.02837029
  52         0.00000000
  53         0.00000000
  54         0.00000000
  55        -0.00000000
  56        -0.00096957
  57         0.00000000
  58        -0.00000000
  59        -0.00000000
  60         0.00000005
Sym=    16a  
Ene=     0.0000
Spin= Alpha
Occup=    0.00000
   1        -0.00000000
   2        -0.00000000
   3         0.00000000
   4         0.00000000
   5        -0.50263491
   6         0.00000003
   7         0.00000000
   8        -0.34505074
   9         0.00000002
  10         0.00000000
  11         1.04699433
  12        -0.00000006
  13        -0.00000000
  14         0.00000000
  15         0.00185029
  16        -0.00000000
  17        -0.00000000
  18         0.00000000
  19         0.00000000
  20        -0.02836935
  21         0.00000000
  22        -0.00000000
  23        -0.00000000
  24         0.00000000
  25        -0.00096961
  26         0.00000000
  27         0.00000000
  28        -0.00000000
  29         0.00000001
  30         0.00000000
  31        -0.00000000
  32        -0.00000000
  33         0.00000000
  34         0.00000000
  35         0.50262487
  36        -0.00000003
  37        -0.00000000
  38         0.34503820
  39        -0.00000002
  40        -0.00000000
  41        -1.04696793
  42         0.00000006
  43         0.00000000
  44         0.00000000
  45         0.00184992
  46        -0.00000000
  47        -0.00000000
  48        -0.00000000
  49         0.00000000
  50        -0.02837030
  51         0.00000000
  52         0.00000000
  53         0.00000000
  54        -0.00000000
  55         0.00096957
  56        -0.00000000
  57        -0.00000000
  58         0.00000000
  59         0.00000006
  60         0.00000000
Sym=    17a  
Ene=     0.0000
Spin= Alpha
Occup=    0.00000
   1        -0.29681591
   2        -1.42711209
   3         0.08511157
   4         1.54700018
   5         0.00000000
   6         0.00000000
   7         0.29144324
   8         0.00000000
   9         0.00000000
  10         0.18093717
  11        -0.00000000
  12        -0.00000000
  13        -0.57037933
  14        -0.00084245
  15        -0.00000000
  16        -0.00000000
  17         0.00000000
  18         0.00000000
  19         0.00391937
  20         0.00000000
  21         0.00000000
  22        -0.00000002
  23        -0.00000000
  24         0.00006725
  25        -0.00000000
  26         0.00000000
  27        -0.00000001
  28         0.00000000
  29         0.00000000
  30        -0.00000000
  31        -0.29673811
  32        -1.42665679
  33         0.08511945
  34         1.54650241
  35        -0.00000000
  36        -0.00000000
  37        -0.29122274
  38        -0.00000000
  39        -0.00000000
  40        -0.18076911
  41         0.00000000
  42         0.00000000
  43         0.56987110
  44        -0.00084145
  45         0.00000000
  46        -0.00000000
  47         0.00000000
  48        -0.00000000
  49         0.00389859
  50         0.00000000
  51         0.00000000
  52        -0.00000002
  53         0.00000000
  54        -0.00006662
  55         0.00000000
  56        -0.00000000
  57         0.00000001
  58         0.00000000
  59        -0.00000000
  60        -0.00000000
Sym=    18a  
Ene=     0.0000
Spin= Alpha
Occup=    0.00000
   1        -0.26303626
   2        -1.27984411
   3         0.05309676
   4         1.45435435
   5         0.00000000
   6        -0.00000000
   7        -0.33615783
   8         0.00000000
   9        -0.00000000
  10        -0.24637244
  11        -0.00000000
  12         0.00000000
  13         0.84887030
  14         0.00857487
  15        -0.00000000
  16        -0.00000000
  17         0.00000000
  18         0.00000000
  19        -0.17672742
  20         0.00000000
  21         0.00000000
  22        -0.00000002
  23        -0.00000000
  24        -0.00317741
  25         0.00000000
  26        -0.00000000
  27        -0.00000001
  28        -0.00000000
  29         0.00000000
  30        -0.00000000
  31         0.26303020
  32         1.27975521
  33        -0.05312148
  34        -1.45423741
  35        -0.00000000
  36        -0.00000000
  37        -0.33616799
  38        -0.00000000
  39        -0.00000000
  40        -0.24638577
  41         0.00000000
  42        -0.00000000
  43         0.84889845
  44        -0.00857605
  45         0.00000000
  46         0.00000000
  47        -0.00000000
  48         0.00000000
  49         0.17673111
  50        -0.00000000
  51        -0.00000000
  52         0.00000002
  53        -0.00000000
  54        -0.00317716
  55        -0.00000000
  56        -0.00000000
  57        -0.00000001
  58        -0.00000000
  59        -0.00000000
  60         0.00000000
Sym=    19a  
Ene=     0.0000
Spin= Alpha
Occup=    0.00000
   1         0.01502189
   2         0.09188711
   3         0.00469036
   4        -0.10757027
   5         0.00000000
   6        -0.00000000
   7         0.06992622
   8        -0.00000000