 Entering Gaussian System, Link 0=g16
 Initial command:
 /public/home/zyli/senxu/soft/g16/l1.exe "/tmp/Gau-473.inp" -scrdir="/tmp/"
 Entering Link 1 = /public/home/zyli/senxu/soft/g16/l1.exe PID=       474.
  
 Copyright (c) 1988-2019, Gaussian, Inc.  All Rights Reserved.
  
 This is part of the Gaussian(R) 16 program.  It is based on
 the Gaussian(R) 09 system (copyright 2009, Gaussian, Inc.),
 the Gaussian(R) 03 system (copyright 2003, Gaussian, Inc.),
 the Gaussian(R) 98 system (copyright 1998, Gaussian, Inc.),
 the Gaussian(R) 94 system (copyright 1995, Gaussian, Inc.),
 the Gaussian 92(TM) system (copyright 1992, Gaussian, Inc.),
 the Gaussian 90(TM) system (copyright 1990, Gaussian, Inc.),
 the Gaussian 88(TM) system (copyright 1988, Gaussian, Inc.),
 the Gaussian 86(TM) system (copyright 1986, Carnegie Mellon
 University), and the Gaussian 82(TM) system (copyright 1983,
 Carnegie Mellon University). Gaussian is a federally registered
 trademark of Gaussian, Inc.
  
 This software contains proprietary and confidential information,
 including trade secrets, belonging to Gaussian, Inc.
  
 This software is provided under written license and may be
 used, copied, transmitted, or stored only in accord with that
 written license.
  
 The following legend is applicable only to US Government
 contracts under FAR:
  
                    RESTRICTED RIGHTS LEGEND
  
 Use, reproduction and disclosure by the US Government is
 subject to restrictions as set forth in subparagraphs (a)
 and (c) of the Commercial Computer Software - Restricted
 Rights clause in FAR 52.227-19.
  
 Gaussian, Inc.
 340 Quinnipiac St., Bldg. 40, Wallingford CT 06492
  
  
 ---------------------------------------------------------------
 Warning -- This program may not be used in any manner that
 competes with the business of Gaussian, Inc. or will provide
 assistance to any competitor of Gaussian, Inc.  The licensee
 of this program is prohibited from giving any competitor of
 Gaussian, Inc. access to this program.  By using this program,
 the user acknowledges that Gaussian, Inc. is engaged in the
 business of creating and licensing software in the field of
 computational chemistry and represents and warrants to the
 licensee that it is not a competitor of Gaussian, Inc. and that
 it will not use this program in any manner prohibited above.
 ---------------------------------------------------------------
  

 Cite this work as:
 Gaussian 16, Revision C.01,
 M. J. Frisch, G. W. Trucks, H. B. Schlegel, G. E. Scuseria, 
 M. A. Robb, J. R. Cheeseman, G. Scalmani, V. Barone, 
 G. A. Petersson, H. Nakatsuji, X. Li, M. Caricato, A. V. Marenich, 
 J. Bloino, B. G. Janesko, R. Gomperts, B. Mennucci, H. P. Hratchian, 
 J. V. Ortiz, A. F. Izmaylov, J. L. Sonnenberg, D. Williams-Young, 
 F. Ding, F. Lipparini, F. Egidi, J. Goings, B. Peng, A. Petrone, 
 T. Henderson, D. Ranasinghe, V. G. Zakrzewski, J. Gao, N. Rega, 
 G. Zheng, W. Liang, M. Hada, M. Ehara, K. Toyota, R. Fukuda, 
 J. Hasegawa, M. Ishida, T. Nakajima, Y. Honda, O. Kitao, H. Nakai, 
 T. Vreven, K. Throssell, J. A. Montgomery, Jr., J. E. Peralta, 
 F. Ogliaro, M. J. Bearpark, J. J. Heyd, E. N. Brothers, K. N. Kudin, 
 V. N. Staroverov, T. A. Keith, R. Kobayashi, J. Normand, 
 K. Raghavachari, A. P. Rendell, J. C. Burant, S. S. Iyengar, 
 J. Tomasi, M. Cossi, J. M. Millam, M. Klene, C. Adamo, R. Cammi, 
 J. W. Ochterski, R. L. Martin, K. Morokuma, O. Farkas, 
 J. B. Foresman, and D. J. Fox, Gaussian, Inc., Wallingford CT, 2019.
 
 ******************************************
 Gaussian 16:  ES64L-G16RevC.01  3-Jul-2019
                 8-Feb-2023 
 ******************************************
 %chk=01fs.chk
 --------------------
 #opt b3lyp/6-31+g(d)
 --------------------
 1/18=20,19=15,26=3,38=1/1,3;
 2/9=110,12=2,17=6,18=5,40=1/2;
 3/5=1,6=6,7=11,11=2,25=1,30=1,71=1,74=-5/1,2,3;
 4//1;
 5/5=2,38=5/2;
 6/7=2,8=2,9=2,10=2,28=1/1;
 7//1,2,3,16;
 1/18=20,19=15,26=3/3(2);
 2/9=110/2;
 99//99;
 2/9=110/2;
 3/5=1,6=6,7=11,11=2,25=1,30=1,71=1,74=-5/1,2,3;
 4/5=5,16=3,69=1/1;
 5/5=2,38=5/2;
 7//1,2,3,16;
 1/18=20,19=15,26=3/3(-5);
 2/9=110/2;
 6/7=2,8=2,9=2,10=2,19=2,28=1/1;
 99/9=1/99;
 ----
 01fs
 ----
 Symbolic Z-matrix:
 Charge =  0 Multiplicity = 1
 C                     0.142    -1.012     0.873 
 C                     0.22      0.359     1.084 
 C                    -1.024     1.278     0.712 
 C                    -1.931     0.802    -0.216 
 C                    -2.037    -0.588    -0.488 
 C                    -1.236    -1.505     0.169 
 C                     1.531    -1.533     0.803 
 C                     1.66      0.719     1.149 
 H                    -1.593     1.507     1.674 
 O                     2.191     1.791     1.227 
 O                     1.938    -2.631     0.546 
 Cl                   -3.37     -1.197    -1.44 
 Cl                   -3.133     1.909    -0.832 
 O                     2.391    -0.471     1.099 
 H                    -0.098    -1.329     1.941 
 H                     0.037     0.332     2.209 
 H                    -0.569     2.252     0.334 
 H                    -0.97     -2.327    -0.575 
 H                    -1.826    -1.986     1.018 
 

 GradGradGradGradGradGradGradGradGradGradGradGradGradGradGradGradGradGrad
 Berny optimization.
 Initialization pass.
                           ----------------------------
                           !    Initial Parameters    !
                           ! (Angstroms and Degrees)  !
 --------------------------                            --------------------------
 ! Name  Definition              Value          Derivative Info.                !
 --------------------------------------------------------------------------------
 ! R1    R(1,2)                  1.3893         estimate D2E/DX2                !
 ! R2    R(1,6)                  1.6241         estimate D2E/DX2                !
 ! R3    R(1,7)                  1.4851         estimate D2E/DX2                !
 ! R4    R(1,15)                 1.1396         estimate D2E/DX2                !
 ! R5    R(2,3)                  1.5907         estimate D2E/DX2                !
 ! R6    R(2,8)                  1.4857         estimate D2E/DX2                !
 ! R7    R(2,16)                 1.1401         estimate D2E/DX2                !
 ! R8    R(3,4)                  1.3822         estimate D2E/DX2                !
 ! R9    R(3,9)                  1.1409         estimate D2E/DX2                !
 ! R10   R(3,17)                 1.1396         estimate D2E/DX2                !
 ! R11   R(4,5)                  1.4203         estimate D2E/DX2                !
 ! R12   R(4,13)                 1.7463         estimate D2E/DX2                !
 ! R13   R(5,6)                  1.3835         estimate D2E/DX2                !
 ! R14   R(5,12)                 1.7476         estimate D2E/DX2                !
 ! R15   R(6,18)                 1.1402         estimate D2E/DX2                !
 ! R16   R(6,19)                 1.1403         estimate D2E/DX2                !
 ! R17   R(7,11)                 1.1989         estimate D2E/DX2                !
 ! R18   R(7,14)                 1.3982         estimate D2E/DX2                !
 ! R19   R(8,10)                 1.1988         estimate D2E/DX2                !
 ! R20   R(8,14)                 1.3975         estimate D2E/DX2                !
 ! A1    A(2,1,6)              114.3951         estimate D2E/DX2                !
 ! A2    A(2,1,7)              107.5074         estimate D2E/DX2                !
 ! A3    A(2,1,15)              98.2788         estimate D2E/DX2                !
 ! A4    A(6,1,7)              131.8083         estimate D2E/DX2                !
 ! A5    A(6,1,15)              98.228          estimate D2E/DX2                !
 ! A6    A(7,1,15)              98.2535         estimate D2E/DX2                !
 ! A7    A(1,2,3)              119.3848         estimate D2E/DX2                !
 ! A8    A(1,2,8)              107.4675         estimate D2E/DX2                !
 ! A9    A(1,2,16)              96.7466         estimate D2E/DX2                !
 ! A10   A(3,2,8)              128.917          estimate D2E/DX2                !
 ! A11   A(3,2,16)              96.8293         estimate D2E/DX2                !
 ! A12   A(8,2,16)              96.7847         estimate D2E/DX2                !
 ! A13   A(2,3,4)              118.1139         estimate D2E/DX2                !
 ! A14   A(2,3,9)              107.9865         estimate D2E/DX2                !
 ! A15   A(2,3,17)             105.0173         estimate D2E/DX2                !
 ! A16   A(4,3,9)              107.9374         estimate D2E/DX2                !
 ! A17   A(4,3,17)             109.4906         estimate D2E/DX2                !
 ! A18   A(9,3,17)             107.8947         estimate D2E/DX2                !
 ! A19   A(3,4,5)              120.9696         estimate D2E/DX2                !
 ! A20   A(3,4,13)             118.0469         estimate D2E/DX2                !
 ! A21   A(5,4,13)             120.0956         estimate D2E/DX2                !
 ! A22   A(4,5,6)              120.9641         estimate D2E/DX2                !
 ! A23   A(4,5,12)             120.1515         estimate D2E/DX2                !
 ! A24   A(6,5,12)             117.9903         estimate D2E/DX2                !
 ! A25   A(1,6,5)              119.7285         estimate D2E/DX2                !
 ! A26   A(1,6,18)             107.6837         estimate D2E/DX2                !
 ! A27   A(1,6,19)             104.1417         estimate D2E/DX2                !
 ! A28   A(5,6,18)             107.6404         estimate D2E/DX2                !
 ! A29   A(5,6,19)             109.4869         estimate D2E/DX2                !
 ! A30   A(18,6,19)            107.6045         estimate D2E/DX2                !
 ! A31   A(1,7,11)             130.4587         estimate D2E/DX2                !
 ! A32   A(1,7,14)             107.3865         estimate D2E/DX2                !
 ! A33   A(11,7,14)            122.1541         estimate D2E/DX2                !
 ! A34   A(2,8,10)             130.4514         estimate D2E/DX2                !
 ! A35   A(2,8,14)             107.4027         estimate D2E/DX2                !
 ! A36   A(10,8,14)            122.1457         estimate D2E/DX2                !
 ! A37   A(7,14,8)             109.4272         estimate D2E/DX2                !
 ! D1    D(6,1,2,3)              3.3421         estimate D2E/DX2                !
 ! D2    D(6,1,2,8)           -155.5653         estimate D2E/DX2                !
 ! D3    D(6,1,2,16)           105.1153         estimate D2E/DX2                !
 ! D4    D(7,1,2,3)            158.9312         estimate D2E/DX2                !
 ! D5    D(7,1,2,8)              0.0237         estimate D2E/DX2                !
 ! D6    D(7,1,2,16)           -99.2957         estimate D2E/DX2                !
 ! D7    D(15,1,2,3)           -99.6482         estimate D2E/DX2                !
 ! D8    D(15,1,2,8)           101.4444         estimate D2E/DX2                !
 ! D9    D(15,1,2,16)            2.1249         estimate D2E/DX2                !
 ! D10   D(2,1,6,5)             17.5014         estimate D2E/DX2                !
 ! D11   D(2,1,6,18)           140.755          estimate D2E/DX2                !
 ! D12   D(2,1,6,19)          -105.1848         estimate D2E/DX2                !
 ! D13   D(7,1,6,5)           -130.5762         estimate D2E/DX2                !
 ! D14   D(7,1,6,18)            -7.3226         estimate D2E/DX2                !
 ! D15   D(7,1,6,19)           106.7376         estimate D2E/DX2                !
 ! D16   D(15,1,6,5)           120.5236         estimate D2E/DX2                !
 ! D17   D(15,1,6,18)         -116.2228         estimate D2E/DX2                !
 ! D18   D(15,1,6,19)           -2.1626         estimate D2E/DX2                !
 ! D19   D(2,1,7,11)          -174.3173         estimate D2E/DX2                !
 ! D20   D(2,1,7,14)             5.3902         estimate D2E/DX2                !
 ! D21   D(6,1,7,11)           -24.6454         estimate D2E/DX2                !
 ! D22   D(6,1,7,14)           155.062          estimate D2E/DX2                !
 ! D23   D(15,1,7,11)           84.244          estimate D2E/DX2                !
 ! D24   D(15,1,7,14)          -96.0486         estimate D2E/DX2                !
 ! D25   D(1,2,3,4)            -22.533          estimate D2E/DX2                !
 ! D26   D(1,2,3,9)            100.1895         estimate D2E/DX2                !
 ! D27   D(1,2,3,17)          -144.8762         estimate D2E/DX2                !
 ! D28   D(8,2,3,4)            131.2864         estimate D2E/DX2                !
 ! D29   D(8,2,3,9)           -105.9911         estimate D2E/DX2                !
 ! D30   D(8,2,3,17)             8.9432         estimate D2E/DX2                !
 ! D31   D(16,2,3,4)          -124.2588         estimate D2E/DX2                !
 ! D32   D(16,2,3,9)            -1.5362         estimate D2E/DX2                !
 ! D33   D(16,2,3,17)          113.398          estimate D2E/DX2                !
 ! D34   D(1,2,8,10)           174.3942         estimate D2E/DX2                !
 ! D35   D(1,2,8,14)            -5.4331         estimate D2E/DX2                !
 ! D36   D(3,2,8,10)            18.1615         estimate D2E/DX2                !
 ! D37   D(3,2,8,14)          -161.6658         estimate D2E/DX2                !
 ! D38   D(16,2,8,10)          -86.314          estimate D2E/DX2                !
 ! D39   D(16,2,8,14)           93.8587         estimate D2E/DX2                !
 ! D40   D(2,3,4,5)             21.2779         estimate D2E/DX2                !
 ! D41   D(2,3,4,13)          -169.4993         estimate D2E/DX2                !
 ! D42   D(9,3,4,5)           -101.4694         estimate D2E/DX2                !
 ! D43   D(9,3,4,13)            67.7534         estimate D2E/DX2                !
 ! D44   D(17,3,4,5)           141.3258         estimate D2E/DX2                !
 ! D45   D(17,3,4,13)          -49.4514         estimate D2E/DX2                !
 ! D46   D(3,4,5,6)              0.0475         estimate D2E/DX2                !
 ! D47   D(3,4,5,12)           169.0074         estimate D2E/DX2                !
 ! D48   D(13,4,5,6)          -168.9562         estimate D2E/DX2                !
 ! D49   D(13,4,5,12)            0.0037         estimate D2E/DX2                !
 ! D50   D(4,5,6,1)            -20.2616         estimate D2E/DX2                !
 ! D51   D(4,5,6,18)          -143.5363         estimate D2E/DX2                !
 ! D52   D(4,5,6,19)            99.7728         estimate D2E/DX2                !
 ! D53   D(12,5,6,1)           170.5466         estimate D2E/DX2                !
 ! D54   D(12,5,6,18)           47.2719         estimate D2E/DX2                !
 ! D55   D(12,5,6,19)          -69.419          estimate D2E/DX2                !
 ! D56   D(1,7,14,8)            -8.9509         estimate D2E/DX2                !
 ! D57   D(11,7,14,8)          170.7862         estimate D2E/DX2                !
 ! D58   D(2,8,14,7)             8.9659         estimate D2E/DX2                !
 ! D59   D(10,8,14,7)         -170.8789         estimate D2E/DX2                !
 --------------------------------------------------------------------------------
 Trust Radius=3.00D-01 FncErr=1.00D-07 GrdErr=1.00D-06 EigMax=2.50D+02 EigMin=1.00D-04
 Number of steps in this run=    114 maximum allowed number of steps=    114.
 GradGradGradGradGradGradGradGradGradGradGradGradGradGradGradGradGradGrad

                          Input orientation:                          
 ---------------------------------------------------------------------
 Center     Atomic      Atomic             Coordinates (Angstroms)
 Number     Number       Type             X           Y           Z
 ---------------------------------------------------------------------
      1          6           0        0.142000   -1.012000    0.873000
      2          6           0        0.220000    0.359000    1.084000
      3          6           0       -1.024000    1.278000    0.712000
      4          6           0       -1.931000    0.802000   -0.216000
      5          6           0       -2.037000   -0.588000   -0.488000
      6          6           0       -1.236000   -1.505000    0.169000
      7          6           0        1.531000   -1.533000    0.803000
      8          6           0        1.660000    0.719000    1.149000
      9          1           0       -1.593000    1.507000    1.674000
     10          8           0        2.191000    1.791000    1.227000
     11          8           0        1.938000   -2.631000    0.546000
     12         17           0       -3.370000   -1.197000   -1.440000
     13         17           0       -3.133000    1.909000   -0.832000
     14          8           0        2.391000   -0.471000    1.099000
     15          1           0       -0.098000   -1.329000    1.941000
     16          1           0        0.037000    0.332000    2.209000
     17          1           0       -0.569000    2.252000    0.334000
     18          1           0       -0.970000   -2.327000   -0.575000
     19          1           0       -1.826000   -1.986000    1.018000
 ---------------------------------------------------------------------
                    Distance matrix (angstroms):
                    1          2          3          4          5
     1  C    0.000000
     2  C    1.389333   0.000000
     3  C    2.574796   1.590749   0.000000
     4  C    2.962068   2.552068   1.382175   0.000000
     5  C    2.603870   2.908959   2.438878   1.420324   0.000000
     6  C    1.624053   2.536071   2.843393   2.439979   1.383524
     7  C    1.485147   2.318911   3.799740   4.298375   3.910285
     8  C    2.318806   1.485741   2.776204   3.842577   4.249215
     9  H    3.161833   2.225528   1.140897   2.045329   3.043091
    10  O    3.490061   2.440474   3.296152   4.477863   5.145566
    11  O    2.440022   3.490139   4.907268   5.228317   4.587334
    12  Cl   4.209316   4.656159   4.032424   2.750436   1.747591
    13  Cl   4.707960   4.161270   2.688862   1.746342   2.748556
    14  O    2.324168   2.324299   3.856293   4.693553   4.705257
    15  H    1.139611   1.919614   3.027270   3.543120   3.195128
    16  H    1.897961   1.140107   2.064375   3.158251   3.524441
    17  H    3.383746   2.183683   1.139555   2.063987   3.300956
    18  H    2.249994   3.373867   3.828225   3.292878   2.042102
    19  H    2.200619   3.112796   3.374987   3.050693   2.065662
                    6          7          8          9         10
     6  C    0.000000
     7  C    2.838843   0.000000
     8  C    3.780660   2.282074   0.000000
     9  H    3.385944   4.445179   3.388005   0.000000
    10  O    4.871069   3.415311   1.198845   3.820880   0.000000
    11  O    3.388847   1.198875   3.415171   5.555483   4.481278
    12  Cl   2.690298   5.400347   5.972845   4.490695   6.853156
    13  Cl   4.031874   6.022747   5.321025   2.968710   5.709499
    14  O    3.884480   1.398235   1.397484   4.485016   2.274429
    15  H    2.113292   1.997574   2.812851   3.217019   3.934935
    16  H    3.026004   2.772561   1.976739   2.079363   2.780777
    17  H    3.819314   4.353870   2.825377   1.843692   2.937273
    18  H    1.140165   2.963836   4.378035   4.488395   5.495184
    19  H    1.140290   3.394243   4.414338   3.561695   5.517762
                   11         12         13         14         15
    11  O    0.000000
    12  Cl   5.845974   0.000000
    13  Cl   6.944460   3.173810   0.000000
    14  O    2.275218   6.337406   6.317257   0.000000
    15  H    2.790435   4.706864   5.233106   2.764100   0.000000
    16  H    3.893423   5.221177   4.667281   2.723642   1.687889
    17  H    5.493058   4.784170   2.837481   4.094088   3.953208
    18  H    3.131377   2.790184   4.763225   4.188476   2.843703
    19  H    3.847922   3.008026   4.505749   4.481615   2.066292
                   16         17         18         19
    16  H    0.000000
    17  H    2.751229   0.000000
    18  H    3.979320   4.685544   0.000000
    19  H    3.203494   4.473092   1.840290   0.000000
 Stoichiometry    C8H6Cl2O3
 Framework group  C1[X(C8H6Cl2O3)]
 Deg. of freedom    51
 Full point group                 C1      NOp   1
 Largest Abelian subgroup         C1      NOp   1
 Largest concise Abelian subgroup C1      NOp   1
                         Standard orientation:                         
 ---------------------------------------------------------------------
 Center     Atomic      Atomic             Coordinates (Angstroms)
 Number     Number       Type             X           Y           Z
 ---------------------------------------------------------------------
      1          6           0        1.191283   -0.714245    0.454734
      2          6           0        1.143145    0.674110    0.434721
      3          6           0       -0.268499    1.406714    0.466893
      4          6           0       -1.378796    0.700086    0.044607
      5          6           0       -1.376495   -0.720067    0.022742
      6          6           0       -0.263085   -1.436357    0.424470
      7          6           0        2.511325   -1.123404   -0.089087
      8          6           0        2.432834    1.157070   -0.122842
      9          1           0       -0.459934    1.755862    1.536049
     10          8           0        2.792440    2.265782   -0.403323
     11          8           0        2.946239   -2.212388   -0.338616
     12         17           0       -2.866277   -1.596406   -0.235437
     13         17           0       -2.871212    1.577022   -0.186448
     14          8           0        3.255502    0.041384   -0.300105
     15          1           0        1.420023   -0.854556    1.562301
     16          1           0        1.403416    0.833002    1.533291
     17          1           0       -0.135973    2.331850   -0.185139
     18          1           0       -0.180678   -2.353053   -0.248474
     19          1           0       -0.413252   -1.805267    1.492935
 ---------------------------------------------------------------------
 Rotational constants (GHZ):           1.0376526           0.3986341           0.2975743
 Standard basis: 6-31+G(d) (6D, 7F)
 There are   267 symmetry adapted cartesian basis functions of A   symmetry.
 There are   267 symmetry adapted basis functions of A   symmetry.
   267 basis functions,   488 primitive gaussians,   267 cartesian basis functions
    56 alpha electrons       56 beta electrons
       nuclear repulsion energy       981.9252754278 Hartrees.
 NAtoms=   19 NActive=   19 NUniq=   19 SFac= 1.00D+00 NAtFMM=   60 NAOKFM=F Big=F
 Integral buffers will be    131072 words long.
 Raffenetti 2 integral format.
 Two-electron integral symmetry is turned on.
 One-electron integrals computed using PRISM.
 NBasis=   267 RedAO= T EigKep=  1.79D-06  NBF=   267
 NBsUse=   267 1.00D-06 EigRej= -1.00D+00 NBFU=   267
 ExpMin= 4.38D-02 ExpMax= 2.52D+04 ExpMxC= 3.78D+03 IAcc=3 IRadAn=         5 AccDes= 0.00D+00
 Harris functional with IExCor=  402 and IRadAn=       5 diagonalized for initial guess.
 HarFok:  IExCor=  402 AccDes= 0.00D+00 IRadAn=         5 IDoV= 1 UseB2=F ITyADJ=14
 ICtDFT=  3500011 ScaDFX=  1.000000  1.000000  1.000000  1.000000
 FoFCou: FMM=F IPFlag=           0 FMFlag=      100000 FMFlg1=           0
         NFxFlg=           0 DoJE=T BraDBF=F KetDBF=T FulRan=T
         wScrn=  0.000000 ICntrl=       500 IOpCl=  0 I1Cent=   200000004 NGrid=           0
         NMat0=    1 NMatS0=      1 NMatT0=    0 NMatD0=    1 NMtDS0=    0 NMtDT0=    0
 Petite list used in FoFCou.
 Requested convergence on RMS density matrix=1.00D-08 within 128 cycles.
 Requested convergence on MAX density matrix=1.00D-06.
 Requested convergence on             energy=1.00D-06.
 No special actions if energy rises.
 SCF Done:  E(RB3LYP) =  -1454.44005758     A.U. after   15 cycles
            NFock= 15  Conv=0.80D-08     -V/T= 2.0051

 **********************************************************************

            Population analysis using the SCF Density.

 **********************************************************************

 Orbital symmetries:
       Occupied  (A) (A) (A) (A) (A) (A) (A) (A) (A) (A) (A) (A)
                 (A) (A) (A) (A) (A) (A) (A) (A) (A) (A) (A) (A)
                 (A) (A) (A) (A) (A) (A) (A) (A) (A) (A) (A) (A)
                 (A) (A) (A) (A) (A) (A) (A) (A) (A) (A) (A) (A)
                 (A) (A) (A) (A) (A) (A) (A) (A)
       Virtual   (A) (A) (A) (A) (A) (A) (A) (A) (A) (A) (A) (A)
                 (A) (A) (A) (A) (A) (A) (A) (A) (A) (A) (A) (A)
                 (A) (A) (A) (A) (A) (A) (A) (A) (A) (A) (A) (A)
                 (A) (A) (A) (A) (A) (A) (A) (A) (A) (A) (A) (A)
                 (A) (A) (A) (A) (A) (A) (A) (A) (A) (A) (A) (A)
                 (A) (A) (A) (A) (A) (A) (A) (A) (A) (A) (A) (A)
                 (A) (A) (A) (A) (A) (A) (A) (A) (A) (A) (A) (A)
                 (A) (A) (A) (A) (A) (A) (A) (A) (A) (A) (A) (A)
                 (A) (A) (A) (A) (A) (A) (A) (A) (A) (A) (A) (A)
                 (A) (A) (A) (A) (A) (A) (A) (A) (A) (A) (A) (A)
                 (A) (A) (A) (A) (A) (A) (A) (A) (A) (A) (A) (A)
                 (A) (A) (A) (A) (A) (A) (A) (A) (A) (A) (A) (A)
                 (A) (A) (A) (A) (A) (A) (A) (A) (A) (A) (A) (A)
                 (A) (A) (A) (A) (A) (A) (A) (A) (A) (A) (A) (A)
                 (A) (A) (A) (A) (A) (A) (A) (A) (A) (A) (A) (A)
                 (A) (A) (A) (A) (A) (A) (A) (A) (A) (A) (A) (A)
                 (A) (A) (A) (A) (A) (A) (A) (A) (A) (A) (A) (A)
                 (A) (A) (A) (A) (A) (A) (A)
 The electronic state is 1-A.
 Alpha  occ. eigenvalues -- -101.58174-101.58085 -19.25419 -19.18947 -19.18829
 Alpha  occ. eigenvalues --  -10.36884 -10.36765 -10.28969 -10.28898 -10.26532
 Alpha  occ. eigenvalues --  -10.26243 -10.25850 -10.25741  -9.49659  -9.49577
 Alpha  occ. eigenvalues --   -7.26085  -7.25998  -7.25104  -7.25035  -7.25025
 Alpha  occ. eigenvalues --   -7.24953  -1.17070  -1.10061  -1.06444  -0.94766
 Alpha  occ. eigenvalues --   -0.90533  -0.88825  -0.81297  -0.79978  -0.72688
 Alpha  occ. eigenvalues --   -0.68074  -0.65889  -0.62492  -0.57094  -0.55199
 Alpha  occ. eigenvalues --   -0.52709  -0.50882  -0.50278  -0.49028  -0.48854
 Alpha  occ. eigenvalues --   -0.47777  -0.45108  -0.44559  -0.44018  -0.43908
 Alpha  occ. eigenvalues --   -0.43711  -0.39806  -0.37722  -0.35873  -0.35723
 Alpha  occ. eigenvalues --   -0.35178  -0.34786  -0.33563  -0.32191  -0.30355
 Alpha  occ. eigenvalues --   -0.25639
 Alpha virt. eigenvalues --   -0.06978  -0.05762  -0.05156  -0.03783  -0.00858
 Alpha virt. eigenvalues --    0.00106   0.00698   0.01434   0.01785   0.03510
 Alpha virt. eigenvalues --    0.03919   0.04674   0.04741   0.04924   0.06729
 Alpha virt. eigenvalues --    0.07414   0.07600   0.07833   0.07993   0.08330
 Alpha virt. eigenvalues --    0.08673   0.09891   0.10726   0.10969   0.11679
 Alpha virt. eigenvalues --    0.12122   0.12418   0.12543   0.13156   0.14127
 Alpha virt. eigenvalues --    0.14514   0.14783   0.15511   0.15693   0.15950
 Alpha virt. eigenvalues --    0.16348   0.17359   0.18146   0.18415   0.18850
 Alpha virt. eigenvalues --    0.19146   0.20005   0.20554   0.20979   0.22320
 Alpha virt. eigenvalues --    0.22815   0.23107   0.24303   0.24389   0.25277
 Alpha virt. eigenvalues --    0.25607   0.26025   0.26747   0.27179   0.27237
 Alpha virt. eigenvalues --    0.28764   0.28999   0.29470   0.29996   0.31360
 Alpha virt. eigenvalues --    0.31924   0.32238   0.33454   0.34092   0.34569
 Alpha virt. eigenvalues --    0.35814   0.36670   0.36890   0.37868   0.39720
 Alpha virt. eigenvalues --    0.40683   0.44597   0.45428   0.46306   0.51034
 Alpha virt. eigenvalues --    0.55957   0.56671   0.57536   0.58278   0.59264
 Alpha virt. eigenvalues --    0.61258   0.62515   0.62646   0.64615   0.66498
 Alpha virt. eigenvalues --    0.66719   0.67242   0.70483   0.70997   0.72559
 Alpha virt. eigenvalues --    0.74189   0.74314   0.75718   0.76790   0.77999
 Alpha virt. eigenvalues --    0.79240   0.80256   0.82626   0.82988   0.83135
 Alpha virt. eigenvalues --    0.84659   0.86188   0.86373   0.88082   0.89833
 Alpha virt. eigenvalues --    0.90484   0.90737   0.92491   0.93959   0.95893
 Alpha virt. eigenvalues --    0.96784   0.97722   1.00262   1.01239   1.03694
 Alpha virt. eigenvalues --    1.04512   1.06960   1.07926   1.11010   1.12857
 Alpha virt. eigenvalues --    1.13817   1.14335   1.14846   1.18441   1.20388
 Alpha virt. eigenvalues --    1.21912   1.22459   1.23883   1.24767   1.26395
 Alpha virt. eigenvalues --    1.28109   1.30119   1.31698   1.33083   1.34545
 Alpha virt. eigenvalues --    1.35010   1.38379   1.39416   1.42760   1.45691
 Alpha virt. eigenvalues --    1.49223   1.49844   1.50175   1.53898   1.60001
 Alpha virt. eigenvalues --    1.66587   1.67408   1.70753   1.73991   1.75358
 Alpha virt. eigenvalues --    1.75838   1.78574   1.78867   1.79666   1.81736
 Alpha virt. eigenvalues --    1.85800   1.86744   1.88480   1.89577   1.90871
 Alpha virt. eigenvalues --    1.92603   1.94866   1.95354   1.98765   2.00641
 Alpha virt. eigenvalues --    2.05391   2.08665   2.10586   2.13307   2.17305
 Alpha virt. eigenvalues --    2.20009   2.21488   2.24927   2.28284   2.29033
 Alpha virt. eigenvalues --    2.29631   2.34977   2.39192   2.42544   2.45990
 Alpha virt. eigenvalues --    2.50585   2.51423   2.54879   2.60942   2.61795
 Alpha virt. eigenvalues --    2.63315   2.68019   2.70706   2.77769   2.81010
 Alpha virt. eigenvalues --    2.84686   2.87989   2.94788   3.07964   3.10612
 Alpha virt. eigenvalues --    3.19820   3.22286   3.28603   4.12394   4.17727
 Alpha virt. eigenvalues --    4.25160   4.26565   4.31476   4.35875   4.37485
 Alpha virt. eigenvalues --    4.43666   4.48708   4.52709   4.61850   4.74519
 Alpha virt. eigenvalues --    5.05423
          Condensed to atoms (all electrons):
               1          2          3          4          5          6
     1  C   18.136798  -9.809066   0.704745  -0.795615   0.988633  -3.244261
     2  C   -9.809066  17.819210  -2.659856   0.771620  -1.047619   1.450285
     3  C    0.704745  -2.659856  11.975664  -1.982257  -0.042124  -1.112575
     4  C   -0.795615   0.771620  -1.982257  12.091186  -3.674509  -0.375899
     5  C    0.988633  -1.047619  -0.042124  -3.674509  11.709499  -1.936255
     6  C   -3.244261   1.450285  -1.112575  -0.375899  -1.936255  12.218231
     7  C   -2.792043   2.648828   0.353888  -0.321782   0.294784  -0.932925
     8  C    2.848313  -2.884253  -1.163480   0.295984  -0.257940   0.109487
     9  H    0.036191  -0.011920   0.419880  -0.129886  -0.071393   0.004826
    10  O   -0.235224   0.168977   0.103966  -0.051417   0.007028  -0.003895
    11  O    0.168557  -0.262513  -0.009513   0.015816  -0.036030   0.110228
    12  Cl  -0.026230   0.012525   0.017450  -0.113277   0.038771  -0.065593
    13  Cl   0.027145  -0.069142  -0.015365   0.002199  -0.106474   0.011557
    14  O   -0.162697  -0.206074   0.006715   0.002676  -0.003953   0.009765
    15  H    0.834824  -0.451906   0.011467   0.017722   0.060740  -0.169666
    16  H   -0.481723   0.833718  -0.131099   0.052478   0.003926   0.054156
    17  H    0.002910  -0.225499   0.558608  -0.096319   0.084813  -0.019188
    18  H   -0.180203   0.006587  -0.025871   0.120982  -0.115581   0.503690
    19  H   -0.011689   0.013541   0.020476  -0.103939  -0.105282   0.428481
               7          8          9         10         11         12
     1  C   -2.792043   2.848313   0.036191  -0.235224   0.168557  -0.026230
     2  C    2.648828  -2.884253  -0.011920   0.168977  -0.262513   0.012525
     3  C    0.353888  -1.163480   0.419880   0.103966  -0.009513   0.017450
     4  C   -0.321782   0.295984  -0.129886  -0.051417   0.015816  -0.113277
     5  C    0.294784  -0.257940  -0.071393   0.007028  -0.036030   0.038771
     6  C   -0.932925   0.109487   0.004826  -0.003895   0.110228  -0.065593
     7  C    7.509496  -1.584282  -0.003112   0.114865   0.180336  -0.001730
     8  C   -1.584282   7.637300   0.031126   0.179257   0.119371   0.008174
     9  H   -0.003112   0.031126   0.512119  -0.000505   0.000012   0.002627
    10  O    0.114865   0.179257  -0.000505   8.286814   0.000075   0.000072
    11  O    0.180336   0.119371   0.000012   0.000075   8.274486  -0.000160
    12  Cl  -0.001730   0.008174   0.002627   0.000072  -0.000160  16.892706
    13  Cl   0.007404  -0.004132   0.009385  -0.000051   0.000071   0.024673
    14  O    0.084659   0.143898  -0.000934  -0.080265  -0.080076  -0.000096
    15  H   -0.083991   0.034745   0.000542  -0.001488  -0.007711   0.000658
    16  H    0.023685  -0.108649  -0.009052  -0.008248  -0.001701  -0.000390
    17  H    0.002672  -0.030301  -0.028634   0.004676   0.000017  -0.000312
    18  H   -0.037093   0.009130  -0.000079   0.000011   0.003032   0.007638
    19  H    0.038342  -0.007389   0.001048   0.000006  -0.000335   0.009523
              13         14         15         16         17         18
     1  C    0.027145  -0.162697   0.834824  -0.481723   0.002910  -0.180203
     2  C   -0.069142  -0.206074  -0.451906   0.833718  -0.225499   0.006587
     3  C   -0.015365   0.006715   0.011467  -0.131099   0.558608  -0.025871
     4  C    0.002199   0.002676   0.017722   0.052478  -0.096319   0.120982
     5  C   -0.106474  -0.003953   0.060740   0.003926   0.084813  -0.115581
     6  C    0.011557   0.009765  -0.169666   0.054156  -0.019188   0.503690
     7  C    0.007404   0.084659  -0.083991   0.023685   0.002672  -0.037093
     8  C   -0.004132   0.143898   0.034745  -0.108649  -0.030301   0.009130
     9  H    0.009385  -0.000934   0.000542  -0.009052  -0.028634  -0.000079
    10  O   -0.000051  -0.080265  -0.001488  -0.008248   0.004676   0.000011
    11  O    0.000071  -0.080076  -0.007711  -0.001701   0.000017   0.003032
    12  Cl   0.024673  -0.000096   0.000658  -0.000390  -0.000312   0.007638
    13  Cl  16.902747  -0.000196  -0.000304   0.000432   0.010369  -0.000422
    14  O   -0.000196   8.604824   0.011663   0.011808   0.001105   0.000906
    15  H   -0.000304   0.011663   0.538640  -0.038810  -0.000225   0.002105
    16  H    0.000432   0.011808  -0.038810   0.545538   0.002055  -0.000237
    17  H    0.010369   0.001105  -0.000225   0.002055   0.475608   0.000033
    18  H   -0.000422   0.000906   0.002105  -0.000237   0.000033   0.482650
    19  H    0.002643  -0.000960  -0.008365   0.000402  -0.000087  -0.029211
              19
     1  C   -0.011689
     2  C    0.013541
     3  C    0.020476
     4  C   -0.103939
     5  C   -0.105282
     6  C    0.428481
     7  C    0.038342
     8  C   -0.007389
     9  H    0.001048
    10  O    0.000006
    11  O   -0.000335
    12  Cl   0.009523
    13  Cl   0.002643
    14  O   -0.000960
    15  H   -0.008365
    16  H    0.000402
    17  H   -0.000087
    18  H   -0.029211
    19  H    0.517180
 Mulliken charges:
               1
     1  C   -0.009363
     2  C   -0.097443
     3  C   -1.030719
     4  C    0.274238
     5  C    0.208966
     6  C   -1.040448
     7  C    0.498000
     8  C    0.623641
     9  H    0.237759
    10  O   -0.484653
    11  O   -0.473960
    12  Cl   0.192972
    13  Cl   0.197459
    14  O   -0.342768
    15  H    0.249360
    16  H    0.251710
    17  H    0.257698
    18  H    0.251935
    19  H    0.235616
 Sum of Mulliken charges =  -0.00000
 Mulliken charges with hydrogens summed into heavy atoms:
               1
     1  C    0.239997
     2  C    0.154268
     3  C   -0.535262
     4  C    0.274238
     5  C    0.208966
     6  C   -0.552897
     7  C    0.498000
     8  C    0.623641
    10  O   -0.484653
    11  O   -0.473960
    12  Cl   0.192972
    13  Cl   0.197459
    14  O   -0.342768
 Electronic spatial extent (au):  <R**2>=           3323.0587
 Charge=             -0.0000 electrons
 Dipole moment (field-independent basis, Debye):
    X=             -2.2756    Y=             -0.0882    Z=              3.2330  Tot=              3.9545
 Quadrupole moment (field-independent basis, Debye-Ang):
   XX=           -110.3170   YY=            -99.6615   ZZ=            -84.1387
   XY=              0.1503   XZ=              5.5360   YZ=              0.3507
 Traceless Quadrupole moment (field-independent basis, Debye-Ang):
   XX=            -12.2780   YY=             -1.6224   ZZ=             13.9004
   XY=              0.1503   XZ=              5.5360   YZ=              0.3507
 Octapole moment (field-independent basis, Debye-Ang**2):
  XXX=            -57.5643  YYY=             -0.9700  ZZZ=              2.3047  XYY=            -38.3903
  XXY=              1.6032  XXZ=             14.4846  XZZ=              7.6751  YZZ=             -0.1332
  YYZ=              5.5579  XYZ=              0.5112
 Hexadecapole moment (field-independent basis, Debye-Ang**3):
 XXXX=          -3067.8249 YYYY=          -1257.1715 ZZZZ=           -167.0228 XXXY=              8.9574
 XXXZ=             59.4797 YYYX=             -0.4325 YYYZ=              2.3061 ZZZX=             -1.5085
 ZZZY=             -0.0282 XXYY=           -787.7691 XXZZ=           -502.6795 YYZZ=           -221.3669
 XXYZ=              1.5692 YYXZ=             20.2889 ZZXY=             -0.7829
 N-N= 9.819252754278D+02 E-N=-5.394379160806D+03  KE= 1.447028822271D+03
 Calling FoFJK, ICntrl=      2127 FMM=F ISym2X=0 I1Cent= 0 IOpClX= 0 NMat=1 NMatS=1 NMatT=0.
 ***** Axes restored to original set *****
 -------------------------------------------------------------------
 Center     Atomic                   Forces (Hartrees/Bohr)
 Number     Number              X              Y              Z
 -------------------------------------------------------------------
      1        6          -0.065166960   -0.099029707    0.027228215
      2        6          -0.035171639    0.093641354    0.075843467
      3        6           0.077349038    0.066559015    0.049160276
      4        6          -0.060568392   -0.104133952   -0.068711785
      5        6          -0.039921683    0.131617987   -0.018542992
      6        6           0.070008501   -0.099776055    0.025554858
      7        6           0.011253648   -0.013794802   -0.032463019
      8        6           0.012106960    0.021433938   -0.025777907
      9        1           0.014994517    0.001666305   -0.017866491
     10        8           0.000699281   -0.001413378    0.004351689
     11        8           0.000454525    0.000600379    0.005199037
     12       17           0.005046150   -0.003422843    0.000038016
     13       17           0.004699707    0.002979623    0.000643796
     14        8          -0.007181850   -0.000843849    0.003134232
     15        1           0.006913281   -0.021686006   -0.025725249
     16        1           0.011212435    0.026958391   -0.015675695
     17        1          -0.011991622   -0.014125175    0.013616555
     18        1          -0.005058674    0.009767294    0.020915957
     19        1           0.010322777    0.003001482   -0.020922958
 -------------------------------------------------------------------
 Cartesian Forces:  Max     0.131617987 RMS     0.042852907

 GradGradGradGradGradGradGradGradGradGradGradGradGradGradGradGradGradGrad
 Berny optimization.
 FormGI is forming the generalized inverse of G from B-inverse, IUseBI=4.
 Internal  Forces:  Max     0.121155885 RMS     0.020093770
 Search for a local minimum.
 Step number   1 out of a maximum of  114
 All quantities printed in internal units (Hartrees-Bohrs-Radians)
 Mixed Optimization -- RFO/linear search
 Second derivative matrix not updated -- first step.
 ITU=  0
     Eigenvalues ---    0.00781   0.01000   0.01096   0.01125   0.01411
     Eigenvalues ---    0.02032   0.02081   0.02200   0.02258   0.02649
     Eigenvalues ---    0.03282   0.04127   0.04689   0.04805   0.05896
     Eigenvalues ---    0.05970   0.07042   0.07598   0.10546   0.10752
     Eigenvalues ---    0.11506   0.11696   0.16497   0.21887   0.22566
     Eigenvalues ---    0.23074   0.23894   0.24365   0.24554   0.24565
     Eigenvalues ---    0.24670   0.25000   0.25000   0.29536   0.29592
     Eigenvalues ---    0.29604   0.29610   0.29656   0.29661   0.30722
     Eigenvalues ---    0.30844   0.32083   0.33625   0.38877   0.42181
     Eigenvalues ---    0.44662   0.45865   0.46041   0.48202   1.05390
     Eigenvalues ---    1.05406
 RFO step:  Lambda=-1.07132644D-01 EMin= 7.81402631D-03
 Linear search not attempted -- first point.
 Maximum step size (   0.300) exceeded in Quadratic search.
    -- Step size scaled by   0.682
 Iteration  1 RMS(Cart)=  0.04999697 RMS(Int)=  0.00135094
 Iteration  2 RMS(Cart)=  0.00138135 RMS(Int)=  0.00047453
 Iteration  3 RMS(Cart)=  0.00000147 RMS(Int)=  0.00047453
 Iteration  4 RMS(Cart)=  0.00000000 RMS(Int)=  0.00047453
 Variable       Old X    -DE/DX   Delta X   Delta X   Delta X     New X
                                 (Linear)    (Quad)   (Total)
    R1        2.62546   0.12116   0.00000   0.15320   0.15441   2.77987
    R2        3.06902  -0.02838   0.00000  -0.05559  -0.05524   3.01377
    R3        2.80652   0.00798   0.00000   0.01505   0.01519   2.82171
    R4        2.15355  -0.01953   0.00000  -0.03301  -0.03301   2.12054
    R5        3.00608  -0.02074   0.00000  -0.03724  -0.03681   2.96927
    R6        2.80764   0.00658   0.00000   0.01264   0.01272   2.82036
    R7        2.15449  -0.01791   0.00000  -0.03030  -0.03030   2.12419
    R8        2.61193   0.09211   0.00000   0.10392   0.10353   2.71546
    R9        2.15598  -0.02221   0.00000  -0.03765  -0.03765   2.11833
   R10        2.15345  -0.02138   0.00000  -0.03613  -0.03613   2.11732
   R11        2.68402  -0.04591   0.00000  -0.06340  -0.06422   2.61980
   R12        3.30011  -0.00157   0.00000  -0.00258  -0.00258   3.29752
   R13        2.61448   0.09179   0.00000   0.10361   0.10310   2.71759
   R14        3.30247  -0.00268   0.00000  -0.00441  -0.00441   3.29806
   R15        2.15460  -0.02187   0.00000  -0.03701  -0.03701   2.11758
   R16        2.15484  -0.02219   0.00000  -0.03756  -0.03756   2.11728
   R17        2.26555  -0.00151   0.00000  -0.00089  -0.00089   2.26466
   R18        2.64228   0.01416   0.00000   0.01122   0.01095   2.65323
   R19        2.26549  -0.00067   0.00000  -0.00039  -0.00039   2.26509
   R20        2.64086   0.01420   0.00000   0.01126   0.01091   2.65177
    A1        1.99657   0.01380   0.00000   0.03160   0.03135   2.02792
    A2        1.87636  -0.01270   0.00000  -0.01920  -0.01950   1.85686
    A3        1.71529   0.01410   0.00000   0.06293   0.06221   1.77749
    A4        2.30049  -0.00614   0.00000  -0.03781  -0.03866   2.26183
    A5        1.71440  -0.00171   0.00000   0.00041  -0.00115   1.71325
    A6        1.71485   0.00030   0.00000  -0.00063   0.00001   1.71486
    A7        2.08366   0.00303   0.00000   0.00843   0.00874   2.09239
    A8        1.87566  -0.00892   0.00000  -0.01120  -0.01168   1.86398
    A9        1.68855   0.01539   0.00000   0.06589   0.06526   1.75380
   A10        2.25003   0.00131   0.00000  -0.02065  -0.02235   2.22767
   A11        1.68999  -0.00128   0.00000   0.00274   0.00213   1.69212
   A12        1.68921  -0.00128   0.00000  -0.00415  -0.00358   1.68563
   A13        2.06148  -0.02697   0.00000  -0.04681  -0.04616   2.01532
   A14        1.88472   0.00479   0.00000   0.00330   0.00328   1.88800
   A15        1.83290   0.01138   0.00000   0.02454   0.02462   1.85752
   A16        1.88386   0.01233   0.00000   0.02801   0.02797   1.91184
   A17        1.91097   0.00684   0.00000   0.01114   0.01101   1.92198
   A18        1.88312  -0.00791   0.00000  -0.02041  -0.02053   1.86259
   A19        2.11132   0.01985   0.00000   0.03673   0.03589   2.14721
   A20        2.06031  -0.01677   0.00000  -0.02991  -0.02984   2.03046
   A21        2.09606  -0.00182   0.00000  -0.00065  -0.00051   2.09555
   A22        2.11122   0.02310   0.00000   0.04229   0.04134   2.15256
   A23        2.09704  -0.00272   0.00000  -0.00250  -0.00229   2.09475
   A24        2.05932  -0.01913   0.00000  -0.03371  -0.03360   2.02572
   A25        2.08966  -0.02963   0.00000  -0.05374  -0.05303   2.03663
   A26        1.87944   0.00807   0.00000   0.01293   0.01308   1.89252
   A27        1.81762   0.00974   0.00000   0.01875   0.01867   1.83628
   A28        1.87868   0.01162   0.00000   0.02383   0.02363   1.90231
   A29        1.91091   0.00898   0.00000   0.01888   0.01893   1.92983
   A30        1.87805  -0.00804   0.00000  -0.02028  -0.02049   1.85756
   A31        2.27693   0.00319   0.00000   0.00581   0.00567   2.28260
   A32        1.87425  -0.00350   0.00000  -0.00612  -0.00586   1.86839
   A33        2.13199   0.00031   0.00000   0.00034   0.00020   2.13219
   A34        2.27681   0.00405   0.00000   0.00779   0.00769   2.28449
   A35        1.87453  -0.00521   0.00000  -0.01005  -0.00985   1.86468
   A36        2.13184   0.00115   0.00000   0.00227   0.00217   2.13402
   A37        1.90986   0.02916   0.00000   0.04048   0.04028   1.95015
    D1        0.05833   0.00089   0.00000  -0.00115  -0.00081   0.05752
    D2       -2.71513   0.01165   0.00000   0.05955   0.06055  -2.65458
    D3        1.83461   0.00934   0.00000   0.04360   0.04466   1.87927
    D4        2.77387  -0.01030   0.00000  -0.05839  -0.05902   2.71486
    D5        0.00041   0.00047   0.00000   0.00232   0.00234   0.00275
    D6       -1.73304  -0.00185   0.00000  -0.01364  -0.01355  -1.74658
    D7       -1.73919  -0.00772   0.00000  -0.04104  -0.04209  -1.78127
    D8        1.77054   0.00304   0.00000   0.01967   0.01927   1.78981
    D9        0.03709   0.00073   0.00000   0.00371   0.00338   0.04047
   D10        0.30546  -0.00928   0.00000  -0.03389  -0.03382   0.27164
   D11        2.45664  -0.00847   0.00000  -0.03013  -0.02998   2.42666
   D12       -1.83582  -0.00968   0.00000  -0.03898  -0.03883  -1.87465
   D13       -2.27899   0.00515   0.00000   0.02739   0.02727  -2.25172
   D14       -0.12780   0.00596   0.00000   0.03114   0.03111  -0.09670
   D15        1.86292   0.00475   0.00000   0.02229   0.02226   1.88518
   D16        2.10353   0.00925   0.00000   0.04524   0.04527   2.14881
   D17       -2.02847   0.01005   0.00000   0.04899   0.04911  -1.97936
   D18       -0.03774   0.00884   0.00000   0.04014   0.04026   0.00252
   D19       -3.04241   0.00162   0.00000   0.01031   0.00940  -3.03301
   D20        0.09408   0.00232   0.00000   0.01671   0.01595   0.11002
   D21       -0.43014  -0.00593   0.00000  -0.03530  -0.03423  -0.46438
   D22        2.70634  -0.00523   0.00000  -0.02890  -0.02769   2.67866
   D23        1.47033  -0.01087   0.00000  -0.05272  -0.05277   1.41757
   D24       -1.67636  -0.01018   0.00000  -0.04633  -0.04622  -1.72258
   D25       -0.39327   0.00974   0.00000   0.03906   0.03847  -0.35480
   D26        1.74864   0.01074   0.00000   0.04547   0.04529   1.79393
   D27       -2.52857   0.00934   0.00000   0.03548   0.03526  -2.49331
   D28        2.29138  -0.00588   0.00000  -0.03185  -0.03211   2.25927
   D29       -1.84989  -0.00488   0.00000  -0.02544  -0.02529  -1.87518
   D30        0.15609  -0.00629   0.00000  -0.03543  -0.03532   0.12077
   D31       -2.16872  -0.00826   0.00000  -0.04184  -0.04226  -2.21098
   D32       -0.02681  -0.00726   0.00000  -0.03543  -0.03544  -0.06225
   D33        1.97917  -0.00866   0.00000  -0.04543  -0.04547   1.93370
   D34        3.04375  -0.00363   0.00000  -0.01674  -0.01605   3.02770
   D35       -0.09483  -0.00304   0.00000  -0.02046  -0.01968  -0.11451
   D36        0.31698   0.00838   0.00000   0.04313   0.04252   0.35950
   D37       -2.82160   0.00897   0.00000   0.03942   0.03889  -2.78271
   D38       -1.50646   0.01076   0.00000   0.04992   0.04993  -1.45654
   D39        1.63814   0.01135   0.00000   0.04621   0.04630   1.68445
   D40        0.37137  -0.00671   0.00000  -0.03422  -0.03439   0.33698
   D41       -2.95832   0.00058   0.00000   0.00258   0.00233  -2.95600
   D42       -1.77097  -0.00392   0.00000  -0.02819  -0.02812  -1.79909
   D43        1.18252   0.00337   0.00000   0.00861   0.00860   1.19112
   D44        2.46660  -0.00517   0.00000  -0.02573  -0.02581   2.44079
   D45       -0.86309   0.00212   0.00000   0.01107   0.01090  -0.85219
   D46        0.00083   0.00138   0.00000   0.00378   0.00391   0.00474
   D47        2.94974   0.00685   0.00000   0.03721   0.03782   2.98755
   D48       -2.94884  -0.00453   0.00000  -0.03076  -0.03120  -2.98005
   D49        0.00006   0.00094   0.00000   0.00267   0.00271   0.00277
   D50       -0.35363   0.00634   0.00000   0.03095   0.03101  -0.32262
   D51       -2.50518   0.00725   0.00000   0.03246   0.03258  -2.47260
   D52        1.74136   0.00554   0.00000   0.03321   0.03312   1.77448
   D53        2.97660  -0.00065   0.00000  -0.00490  -0.00463   2.97197
   D54        0.82505   0.00026   0.00000  -0.00338  -0.00306   0.82199
   D55       -1.21159  -0.00145   0.00000  -0.00263  -0.00252  -1.21411
   D56       -0.15622  -0.00817   0.00000  -0.03566  -0.03565  -0.19187
   D57        2.98078  -0.00754   0.00000  -0.02989  -0.02977   2.95101
   D58        0.15648   0.00830   0.00000   0.03670   0.03669   0.19317
   D59       -2.98240   0.00882   0.00000   0.03335   0.03343  -2.94897
         Item               Value     Threshold  Converged?
 Maximum Force            0.121156     0.000450     NO 
 RMS     Force            0.020094     0.000300     NO 
 Maximum Displacement     0.202489     0.001800     NO 
 RMS     Displacement     0.049587     0.001200     NO 
 Predicted change in Energy=-5.638363D-02
 GradGradGradGradGradGradGradGradGradGradGradGradGradGradGradGradGradGrad

                          Input orientation:                          
 ---------------------------------------------------------------------
 Center     Atomic      Atomic             Coordinates (Angstroms)
 Number     Number       Type             X           Y           Z
 ---------------------------------------------------------------------
      1          6           0        0.101016   -1.051488    0.903184
      2          6           0        0.193655    0.398562    1.132825
      3          6           0       -1.011009    1.330812    0.747367
      4          6           0       -1.935278    0.783350   -0.207024
      5          6           0       -2.033336   -0.574081   -0.471033
      6          6           0       -1.226645   -1.567125    0.185627
      7          6           0        1.503504   -1.549179    0.780998
      8          6           0        1.646008    0.742203    1.140010
      9          1           0       -1.558750    1.600979    1.687351
     10          8           0        2.200989    1.803548    1.187655
     11          8           0        1.927403   -2.632963    0.494816
     12         17           0       -3.331774   -1.178022   -1.468651
     13         17           0       -3.111727    1.889734   -0.867946
     14          8           0        2.350756   -0.469649    1.077764
     15          1           0       -0.116561   -1.434654    1.935193
     16          1           0        0.046187    0.439152    2.246442
     17          1           0       -0.563975    2.278688    0.351048
     18          1           0       -0.943984   -2.356954   -0.557317
     19          1           0       -1.813480   -2.082915    0.988693
 ---------------------------------------------------------------------
                    Distance matrix (angstroms):
                    1          2          3          4          5
     1  C    0.000000
     2  C    1.471041   0.000000
     3  C    2.633673   1.571269   0.000000
     4  C    2.957310   2.544723   1.436959   0.000000
     5  C    2.582992   2.911681   2.481587   1.386339   0.000000
     6  C    1.594821   2.603529   2.959745   2.486175   1.438084
     7  C    1.493184   2.373433   3.823384   4.271077   3.876549
     8  C    2.379162   1.492470   2.749612   3.826460   4.226776
     9  H    3.225728   2.196413   1.120973   2.097367   3.100765
    10  O    3.555565   2.450791   3.276319   4.482704   5.131654
    11  O    2.450207   3.550082   4.940603   5.204236   4.567199
    12  Cl   4.174405   4.656387   4.073197   2.718249   1.745258
    13  Cl   4.702064   4.141525   2.708255   1.744975   2.718612
    14  O    2.330310   2.325920   3.827831   4.646587   4.650800
    15  H    1.122140   2.025021   3.139868   3.579995   3.194454
    16  H    2.007326   1.124072   2.039595   3.172408   3.568715
    17  H    3.440514   2.172568   1.120436   2.104270   3.312572
    18  H    2.220209   3.426905   3.912329   3.311628   2.091117
    19  H    2.176338   3.194855   3.515072   3.108061   2.110856
                    6          7          8          9         10
     6  C    0.000000
     7  C    2.794370   0.000000
     8  C    3.807358   2.323710   0.000000
     9  H    3.521697   4.485797   3.362670   0.000000
    10  O    4.910618   3.448570   1.198636   3.798206   0.000000
    11  O    3.343595   1.198406   3.447782   5.612634   4.498612
    12  Cl   2.705476   5.345895   5.938912   4.563640   6.823282
    13  Cl   4.075956   5.987111   5.290062   3.004108   5.697181
    14  O    3.846838   1.404027   1.403257   4.465796   2.280774
    15  H    2.076251   1.992459   2.911643   3.369926   4.051642
    16  H    3.145188   2.867885   1.968618   2.058700   2.761481
    17  H    3.905991   4.371715   2.804866   1.798492   2.927575
    18  H    1.120577   2.904098   4.381067   4.591482   5.499596
    19  H    1.120415   3.366066   4.469031   3.758202   5.591077
                   11         12         13         14         15
    11  O    0.000000
    12  Cl   5.799223   0.000000
    13  Cl   6.906861   3.133750   0.000000
    14  O    2.280128   6.267150   6.260287   0.000000
    15  H    2.772799   4.689307   5.280167   2.784614   0.000000
    16  H    4.005628   5.275205   4.666479   2.739118   1.906440
    17  H    5.509260   4.787573   2.851012   4.071502   4.061847
    18  H    3.070509   2.814596   4.778071   4.134093   2.783500
    19  H    3.813223   3.026976   4.573236   4.466702   2.048326
                   16         17         18         19
    16  H    0.000000
    17  H    2.710850   0.000000
    18  H    4.081632   4.739062   0.000000
    19  H    3.376554   4.581641   1.794789   0.000000
 Stoichiometry    C8H6Cl2O3
 Framework group  C1[X(C8H6Cl2O3)]
 Deg. of freedom    51
 Full point group                 C1      NOp   1
 Largest Abelian subgroup         C1      NOp   1
 Largest concise Abelian subgroup C1      NOp   1
                         Standard orientation:                         
 ---------------------------------------------------------------------
 Center     Atomic      Atomic             Coordinates (Angstroms)
 Number     Number       Type             X           Y           Z
 ---------------------------------------------------------------------
      1          6           0        1.175098   -0.749275    0.509898
      2          6           0        1.136071    0.721103    0.489182
      3          6           0       -0.246426    1.467780    0.496894
      4          6           0       -1.374043    0.684689    0.072512
      5          6           0       -1.366523   -0.701477    0.051943
      6          6           0       -0.235403   -1.491678    0.457202
      7          6           0        2.481811   -1.144644   -0.094904
      8          6           0        2.415118    1.177849   -0.129598
      9          1           0       -0.428211    1.856273    1.532561
     10          8           0        2.785615    2.272270   -0.448508
     11          8           0        2.917732   -2.223882   -0.380202
     12         17           0       -2.844073   -1.578220   -0.254805
     13         17           0       -2.860952    1.555073   -0.204019
     14          8           0        3.211382    0.036069   -0.306883
     15          1           0        1.424929   -0.957914    1.583794
     16          1           0        1.419316    0.948269    1.552998
     17          1           0       -0.126961    2.362642   -0.166678
     18          1           0       -0.145078   -2.376027   -0.225047
     19          1           0       -0.390618   -1.901481    1.488366
 ---------------------------------------------------------------------
 Rotational constants (GHZ):           1.0206382           0.4033223           0.3001030
 Standard basis: 6-31+G(d) (6D, 7F)
 There are   267 symmetry adapted cartesian basis functions of A   symmetry.
 There are   267 symmetry adapted basis functions of A   symmetry.
   267 basis functions,   488 primitive gaussians,   267 cartesian basis functions
    56 alpha electrons       56 beta electrons
       nuclear repulsion energy       980.0854816378 Hartrees.
 NAtoms=   19 NActive=   19 NUniq=   19 SFac= 1.00D+00 NAtFMM=   60 NAOKFM=F Big=F
 Integral buffers will be    131072 words long.
 Raffenetti 2 integral format.
 Two-electron integral symmetry is turned on.
 One-electron integrals computed using PRISM.
 NBasis=   267 RedAO= T EigKep=  2.21D-06  NBF=   267
 NBsUse=   267 1.00D-06 EigRej= -1.00D+00 NBFU=   267
 Initial guess from the checkpoint file:  "01fs.chk"
 B after Tr=     0.000000    0.000000   -0.000000
         Rot=    1.000000    0.000391   -0.000468    0.000055 Ang=   0.07 deg.
 ExpMin= 4.38D-02 ExpMax= 2.52D+04 ExpMxC= 3.78D+03 IAcc=3 IRadAn=         5 AccDes= 0.00D+00
 Harris functional with IExCor=  402 and IRadAn=       5 diagonalized for initial guess.
 HarFok:  IExCor=  402 AccDes= 0.00D+00 IRadAn=         5 IDoV= 1 UseB2=F ITyADJ=14
 ICtDFT=  3500011 ScaDFX=  1.000000  1.000000  1.000000  1.000000
 FoFCou: FMM=F IPFlag=           0 FMFlag=      100000 FMFlg1=           0
         NFxFlg=           0 DoJE=T BraDBF=F KetDBF=T FulRan=T
         wScrn=  0.000000 ICntrl=       500 IOpCl=  0 I1Cent=   200000004 NGrid=           0
         NMat0=    1 NMatS0=      1 NMatT0=    0 NMatD0=    1 NMtDS0=    0 NMtDT0=    0
 Petite list used in FoFCou.
 Requested convergence on RMS density matrix=1.00D-08 within 128 cycles.
 Requested convergence on MAX density matrix=1.00D-06.
 Requested convergence on             energy=1.00D-06.
 No special actions if energy rises.
 SCF Done:  E(RB3LYP) =  -1454.49366400     A.U. after   14 cycles
            NFock= 14  Conv=0.60D-08     -V/T= 2.0053
 Calling FoFJK, ICntrl=      2127 FMM=F ISym2X=0 I1Cent= 0 IOpClX= 0 NMat=1 NMatS=1 NMatT=0.
 ***** Axes restored to original set *****
 -------------------------------------------------------------------
 Center     Atomic                   Forces (Hartrees/Bohr)
 Number     Number              X              Y              Z
 -------------------------------------------------------------------
      1        6          -0.045558099   -0.037680842    0.031123034
      2        6          -0.028203129    0.031970987    0.058447069
      3        6           0.046048798    0.036037218    0.014708891
      4        6          -0.029862890   -0.061152128   -0.032134521
      5        6          -0.018752028    0.073186242   -0.003642801
      6        6           0.045346677   -0.051245330    0.005554309
      7        6           0.007523412    0.000799125   -0.027732371
      8        6           0.007248821    0.006390031   -0.027165061
      9        1           0.006508954   -0.000213730   -0.012793947
     10        8          -0.000534504   -0.003267350    0.004265730
     11        8          -0.000290793    0.001858799    0.005146456
     12       17           0.002333986   -0.004718492   -0.001164117
     13       17           0.002860627    0.004548983    0.000368091
     14        8          -0.000230276   -0.000883889    0.002041306
     15        1           0.006393590   -0.005455894   -0.011915806
     16        1           0.007793867    0.007518453   -0.008664059
     17        1          -0.008182311   -0.008205377    0.006729323
     18        1          -0.003783347    0.006563620    0.011082967
     19        1           0.003338645    0.003949570   -0.014254492
 -------------------------------------------------------------------
 Cartesian Forces:  Max     0.073186242 RMS     0.023846094

 GradGradGradGradGradGradGradGradGradGradGradGradGradGradGradGradGradGrad
 Berny optimization.
 Using GEDIIS/GDIIS optimizer.
 FormGI is forming the generalized inverse of G from B-inverse, IUseBI=4.
 Internal  Forces:  Max     0.043782808 RMS     0.009563877
 Search for a local minimum.
 Step number   2 out of a maximum of  114
 All quantities printed in internal units (Hartrees-Bohrs-Radians)
 Mixed Optimization -- RFO/linear search
 Update second derivatives using D2CorX and points    1    2
 DE= -5.36D-02 DEPred=-5.64D-02 R= 9.51D-01
 TightC=F SS=  1.41D+00  RLast= 3.93D-01 DXNew= 5.0454D-01 1.1780D+00
 Trust test= 9.51D-01 RLast= 3.93D-01 DXMaxT set to 5.05D-01
 ITU=  1  0
 Use linear search instead of GDIIS.
     Eigenvalues ---    0.00794   0.01038   0.01095   0.01126   0.01450
     Eigenvalues ---    0.02070   0.02082   0.02234   0.02272   0.02815
     Eigenvalues ---    0.03363   0.04307   0.04678   0.05368   0.05985
     Eigenvalues ---    0.06012   0.07032   0.07647   0.10211   0.10365
     Eigenvalues ---    0.11192   0.11368   0.15741   0.20733   0.22245
     Eigenvalues ---    0.22796   0.23885   0.24406   0.24498   0.24638
     Eigenvalues ---    0.24703   0.25000   0.25000   0.28881   0.29558
     Eigenvalues ---    0.29600   0.29617   0.29646   0.29664   0.30733
     Eigenvalues ---    0.30851   0.32106   0.33517   0.39322   0.41703
     Eigenvalues ---    0.44520   0.44727   0.46235   0.52913   1.05394
     Eigenvalues ---    1.05444
 RFO step:  Lambda=-4.55686690D-02 EMin= 7.94405545D-03
 Quartic linear search produced a step of  1.31259.
 Iteration  1 RMS(Cart)=  0.11233150 RMS(Int)=  0.01543625
 Iteration  2 RMS(Cart)=  0.01548488 RMS(Int)=  0.00715453
 Iteration  3 RMS(Cart)=  0.00026813 RMS(Int)=  0.00715200
 Iteration  4 RMS(Cart)=  0.00000275 RMS(Int)=  0.00715200
 Iteration  5 RMS(Cart)=  0.00000005 RMS(Int)=  0.00715200
 Variable       Old X    -DE/DX   Delta X   Delta X   Delta X     New X
                                 (Linear)    (Quad)   (Total)
    R1        2.77987   0.03856   0.20267  -0.07851   0.14539   2.92525
    R2        3.01377  -0.01790  -0.07251  -0.03728  -0.10426   2.90951
    R3        2.82171   0.00658   0.01994   0.01789   0.03988   2.86159
    R4        2.12054  -0.01034  -0.04333  -0.00700  -0.05034   2.07020
    R5        2.96927  -0.01137  -0.04832  -0.01096  -0.05375   2.91552
    R6        2.82036   0.00567   0.01669   0.01719   0.03690   2.85726
    R7        2.12419  -0.00933  -0.03977  -0.00556  -0.04533   2.07886
    R8        2.71546   0.04378   0.13589  -0.00837   0.12111   2.83657
    R9        2.11833  -0.01396  -0.04942  -0.02194  -0.07136   2.04697
   R10        2.11732  -0.01259  -0.04742  -0.01567  -0.06309   2.05423
   R11        2.61980  -0.02885  -0.08430  -0.03187  -0.12732   2.49248
   R12        3.29752   0.00082  -0.00339   0.00948   0.00609   3.30361
   R13        2.71759   0.04336   0.13533  -0.00927   0.11941   2.83700
   R14        3.29806   0.00056  -0.00579   0.01115   0.00536   3.30342
   R15        2.11758  -0.01293  -0.04859  -0.01639  -0.06498   2.05260
   R16        2.11728  -0.01378  -0.04930  -0.02085  -0.07015   2.04713
   R17        2.26466  -0.00301  -0.00116  -0.00436  -0.00552   2.25913
   R18        2.65323   0.00343   0.01437  -0.02138  -0.01531   2.63791
   R19        2.26509  -0.00297  -0.00052  -0.00513  -0.00564   2.25945
   R20        2.65177   0.00361   0.01432  -0.01985  -0.01387   2.63790
    A1        2.02792   0.01022   0.04115   0.02498   0.05424   2.08216
    A2        1.85686  -0.00560  -0.02559  -0.00748  -0.03746   1.81940
    A3        1.77749   0.00422   0.08165   0.01504   0.08700   1.86450
    A4        2.26183  -0.00954  -0.05074  -0.10627  -0.17115   2.09068
    A5        1.71325   0.00267  -0.00151   0.09478   0.08802   1.80128
    A6        1.71486   0.00220   0.00001   0.04263   0.05381   1.76867
    A7        2.09239   0.00333   0.01147   0.00243   0.00404   2.09643
    A8        1.86398  -0.00398  -0.01534  -0.01074  -0.03468   1.82930
    A9        1.75380   0.00505   0.08566   0.02156   0.09967   1.85348
   A10        2.22767  -0.00409  -0.02934  -0.08062  -0.13534   2.09233
   A11        1.69212   0.00357   0.00280   0.10793   0.11038   1.80251
   A12        1.68563   0.00139  -0.00470   0.04917   0.05600   1.74163
   A13        2.01532  -0.01409  -0.06058   0.00401  -0.04365   1.97168
   A14        1.88800   0.00396   0.00430   0.01897   0.01997   1.90797
   A15        1.85752   0.00784   0.03232   0.02500   0.05348   1.91101
   A16        1.91184   0.00523   0.03672  -0.01757   0.01641   1.92825
   A17        1.92198   0.00176   0.01445  -0.02466  -0.01373   1.90825
   A18        1.86259  -0.00413  -0.02694  -0.00490  -0.03118   1.83141
   A19        2.14721   0.00860   0.04711   0.00359   0.04335   2.19056
   A20        2.03046  -0.01191  -0.03917  -0.02933  -0.06895   1.96151
   A21        2.09555   0.00404  -0.00067   0.03631   0.03531   2.13086
   A22        2.15256   0.00987   0.05426   0.00198   0.04890   2.20146
   A23        2.09475   0.00378  -0.00300   0.03691   0.03384   2.12859
   A24        2.02572  -0.01296  -0.04411  -0.02864  -0.07298   1.95274
   A25        2.03663  -0.01559  -0.06961  -0.00195  -0.05781   1.97881
   A26        1.89252   0.00539   0.01717   0.00819   0.02120   1.91372
   A27        1.83628   0.00775   0.02450   0.04390   0.06469   1.90097
   A28        1.90231   0.00494   0.03101  -0.01535   0.01194   1.91425
   A29        1.92983   0.00245   0.02484  -0.03019  -0.00788   1.92196
   A30        1.85756  -0.00419  -0.02690  -0.00287  -0.02950   1.82806
   A31        2.28260   0.00032   0.00744  -0.01255  -0.00743   2.27517
   A32        1.86839   0.00130  -0.00769   0.02952   0.02573   1.89411
   A33        2.13219  -0.00163   0.00026  -0.01703  -0.01977   2.11242
   A34        2.28449   0.00076   0.01009  -0.01271  -0.00563   2.27887
   A35        1.86468   0.00056  -0.01294   0.03070   0.02287   1.88755
   A36        2.13402  -0.00132   0.00285  -0.01802  -0.01869   2.11532
   A37        1.95015   0.00694   0.05287  -0.05615  -0.00470   1.94544
    D1        0.05752   0.00072  -0.00106  -0.01290  -0.01203   0.04550
    D2       -2.65458   0.01162   0.07947   0.18892   0.28252  -2.37206
    D3        1.87927   0.00937   0.05862   0.13146   0.19813   2.07740
    D4        2.71486  -0.01067  -0.07746  -0.19017  -0.27999   2.43487
    D5        0.00275   0.00023   0.00307   0.01165   0.01456   0.01731
    D6       -1.74658  -0.00201  -0.01778  -0.04581  -0.06983  -1.81642
    D7       -1.78127  -0.00840  -0.05524  -0.14103  -0.20341  -1.98468
    D8        1.78981   0.00250   0.02529   0.06079   0.09114   1.88095
    D9        0.04047   0.00026   0.00444   0.00333   0.00675   0.04722
   D10        0.27164  -0.00557  -0.04439  -0.04644  -0.08952   0.18212
   D11        2.42666  -0.00594  -0.03935  -0.06165  -0.09870   2.32795
   D12       -1.87465  -0.00461  -0.05097  -0.04015  -0.08958  -1.96423
   D13       -2.25172   0.00538   0.03579   0.13230   0.16030  -2.09142
   D14       -0.09670   0.00501   0.04083   0.11709   0.15112   0.05442
   D15        1.88518   0.00634   0.02922   0.13860   0.16024   2.04542
   D16        2.14881   0.00393   0.05942   0.03179   0.09641   2.24521
   D17       -1.97936   0.00356   0.06446   0.01658   0.08722  -1.89214
   D18        0.00252   0.00489   0.05285   0.03808   0.09635   0.09887
   D19       -3.03301  -0.00017   0.01234  -0.01388  -0.01065  -3.04367
   D20        0.11002   0.00158   0.02093   0.03102   0.04705   0.15707
   D21       -0.46438  -0.00580  -0.04494  -0.16667  -0.19445  -0.65883
   D22        2.67866  -0.00405  -0.03634  -0.12176  -0.13675   2.54190
   D23        1.41757  -0.00415  -0.06926  -0.04287  -0.11231   1.30525
   D24       -1.72258  -0.00240  -0.06067   0.00204  -0.05461  -1.77720
   D25       -0.35480   0.00559   0.05050   0.06745   0.11248  -0.24232
   D26        1.79393   0.00565   0.05945   0.06206   0.11843   1.91236
   D27       -2.49331   0.00663   0.04628   0.07771   0.11984  -2.37347
   D28        2.25927  -0.00713  -0.04215  -0.15495  -0.19099   2.06828
   D29       -1.87518  -0.00707  -0.03319  -0.16033  -0.18503  -2.06022
   D30        0.12077  -0.00609  -0.04636  -0.14468  -0.18363  -0.06286
   D31       -2.21098  -0.00367  -0.05546  -0.02744  -0.08937  -2.30035
   D32       -0.06225  -0.00361  -0.04651  -0.03283  -0.08342  -0.14567
   D33        1.93370  -0.00263  -0.05968  -0.01718  -0.08202   1.85169
   D34        3.02770  -0.00126  -0.02107  -0.00002  -0.01365   3.01404
   D35       -0.11451  -0.00192  -0.02583  -0.05036  -0.07159  -0.18610
   D36        0.35950   0.00834   0.05581   0.19314   0.23490   0.59440
   D37       -2.78271   0.00767   0.05105   0.14280   0.17697  -2.60574
   D38       -1.45654   0.00382   0.06553   0.03740   0.10340  -1.35313
   D39        1.68445   0.00316   0.06078  -0.01295   0.04547   1.72991
   D40        0.33698  -0.00532  -0.04513  -0.06669  -0.10989   0.22710
   D41       -2.95600   0.00045   0.00305   0.01606   0.01782  -2.93818
   D42       -1.79909  -0.00451  -0.03690  -0.08080  -0.11725  -1.91634
   D43        1.19112   0.00126   0.01128   0.00195   0.01045   1.20157
   D44        2.44079  -0.00362  -0.03388  -0.04998  -0.08100   2.35979
   D45       -0.85219   0.00215   0.01431   0.03277   0.04670  -0.80548
   D46        0.00474   0.00101   0.00513   0.00422   0.00998   0.01471
   D47        2.98755   0.00521   0.04964   0.08142   0.13582   3.12337
   D48       -2.98005  -0.00366  -0.04096  -0.07592  -0.12099  -3.10103
   D49        0.00277   0.00053   0.00355   0.00128   0.00485   0.00762
   D50       -0.32262   0.00466   0.04070   0.05651   0.09489  -0.22773
   D51       -2.47260   0.00489   0.04277   0.05964   0.09932  -2.37328
   D52        1.77448   0.00563   0.04347   0.08953   0.13252   1.90700
   D53        2.97197  -0.00070  -0.00608  -0.02329  -0.02799   2.94397
   D54        0.82199  -0.00047  -0.00402  -0.02016  -0.02356   0.79843
   D55       -1.21411   0.00028  -0.00331   0.00973   0.00964  -1.20448
   D56       -0.19187  -0.00426  -0.04679  -0.05907  -0.10059  -0.29247
   D57        2.95101  -0.00270  -0.03908  -0.01890  -0.04929   2.90172
   D58        0.19317   0.00434   0.04815   0.06652   0.11012   0.30329
   D59       -2.94897   0.00374   0.04388   0.02151   0.05868  -2.89029
         Item               Value     Threshold  Converged?
 Maximum Force            0.043783     0.000450     NO 
 RMS     Force            0.009564     0.000300     NO 
 Maximum Displacement     0.359365     0.001800     NO 
 RMS     Displacement     0.119629     0.001200     NO 
 Predicted change in Energy=-3.573086D-02
 GradGradGradGradGradGradGradGradGradGradGradGradGradGradGradGradGradGrad

                          Input orientation:                          
 ---------------------------------------------------------------------
 Center     Atomic      Atomic             Coordinates (Angstroms)
 Number     Number       Type             X           Y           Z
 ---------------------------------------------------------------------
      1          6           0       -0.001639   -1.099418    1.059113
      2          6           0        0.114751    0.421768    1.321173
      3          6           0       -0.988972    1.379295    0.825948
      4          6           0       -1.920175    0.738818   -0.161873
      5          6           0       -2.000887   -0.553715   -0.411893
      6          6           0       -1.196408   -1.635200    0.249189
      7          6           0        1.405475   -1.523313    0.693848
      8          6           0        1.567934    0.748675    1.061308
      9          1           0       -1.541698    1.759443    1.676433
     10          8           0        2.131866    1.801982    1.015428
     11          8           0        1.823213   -2.578651    0.318437
     12         17           0       -3.141606   -1.203407   -1.566229
     13         17           0       -2.953608    1.904510   -0.955201
     14          8           0        2.267893   -0.452415    0.934709
     15          1           0       -0.125024   -1.580889    2.035374
     16          1           0        0.087150    0.547928    2.413651
     17          1           0       -0.532453    2.256195    0.373936
     18          1           0       -0.843958   -2.338555   -0.499732
     19          1           0       -1.828856   -2.223048    0.903384
 ---------------------------------------------------------------------
                    Distance matrix (angstroms):
                    1          2          3          4          5
     1  C    0.000000
     2  C    1.547976   0.000000
     3  C    2.678285   1.542825   0.000000
     4  C    2.924158   2.537887   1.501046   0.000000
     5  C    2.541386   2.903619   2.508535   1.318964   0.000000
     6  C    1.539647   2.664471   3.076177   2.515705   1.501275
     7  C    1.514290   2.417198   3.765097   4.112109   3.710267
     8  C    2.424667   1.511998   2.644021   3.696373   4.074680
     9  H    3.305443   2.158565   1.083210   2.136420   3.150025
    10  O    3.601648   2.463173   3.155027   4.351481   4.966507
    11  O    2.463090   3.595391   4.881730   5.024863   4.388335
    12  Cl   4.094219   4.645659   4.126341   2.690046   1.748094
    13  Cl   4.668529   4.098198   2.703356   1.748196   2.691789
    14  O    2.363232   2.355753   3.738203   4.490150   4.477285
    15  H    1.095502   2.139676   3.312372   3.664902   3.250087
    16  H    2.134574   1.100085   2.090457   3.270950   3.682012
    17  H    3.465742   2.163620   1.087050   2.124923   3.266407
    18  H    2.162165   3.442993   3.949793   3.277593   2.128815
    19  H    2.150702   3.308656   3.699767   3.148930   2.132187
                    6          7          8          9         10
     6  C    0.000000
     7  C    2.641975   0.000000
     8  C    3.739516   2.307238   0.000000
     9  H    3.698628   4.519710   3.327137   0.000000
    10  O    4.845487   3.418865   1.195650   3.732801   0.000000
    11  O    3.164333   1.195482   3.418789   5.655602   4.446460
    12  Cl   2.695549   5.087852   5.735359   4.674724   6.595970
    13  Cl   4.131326   5.785407   5.083955   2.989989   5.454900
    14  O    3.724285   1.395923   1.395918   4.467153   2.259939
    15  H    2.083571   2.036033   3.040030   3.646042   4.192571
    16  H    3.331435   2.997622   2.015404   2.159723   2.776426
    17  H    3.949602   4.259412   2.675205   1.720999   2.777844
    18  H    1.086191   2.673799   4.217233   4.692134   5.319331
    19  H    1.083294   3.315785   4.516000   4.066977   5.648073
                   11         12         13         14         15
    11  O    0.000000
    12  Cl   5.485680   0.000000
    13  Cl   6.673747   3.172987   0.000000
    14  O    2.257966   6.006776   6.032489   0.000000
    15  H    2.781911   4.713153   5.393740   2.865479   0.000000
    16  H    4.144796   5.415855   4.736632   2.818439   2.172550
    17  H    5.378473   4.747712   2.784291   3.936111   4.201142
    18  H    2.800151   2.775818   4.760428   3.911363   2.741840
    19  H    3.715672   2.976906   4.664348   4.463124   2.144018
                   16         17         18         19
    16  H    0.000000
    17  H    2.731762   0.000000
    18  H    4.205537   4.687436   0.000000
    19  H    3.691922   4.693037   1.718168   0.000000
 Stoichiometry    C8H6Cl2O3
 Framework group  C1[X(C8H6Cl2O3)]
 Deg. of freedom    51
 Full point group                 C1      NOp   1
 Largest Abelian subgroup         C1      NOp   1
 Largest concise Abelian subgroup C1      NOp   1
                         Standard orientation:                         
 ---------------------------------------------------------------------
 Center     Atomic      Atomic             Coordinates (Angstroms)
 Number     Number       Type             X           Y           Z
 ---------------------------------------------------------------------
      1          6           0        1.154834   -0.767912    0.727676
      2          6           0        1.136753    0.779870    0.711107
      3          6           0       -0.202233    1.537195    0.593279
      4          6           0       -1.340647    0.652673    0.175217
      5          6           0       -1.319585   -0.665999    0.157145
      6          6           0       -0.168014   -1.538660    0.564790
      7          6           0        2.349879   -1.135740   -0.126517
      8          6           0        2.303114    1.170649   -0.168116
      9          1           0       -0.424664    2.020747    1.536701
     10          8           0        2.639182    2.239966   -0.584288
     11          8           0        2.738046   -2.204510   -0.495614
     12         17           0       -2.712278   -1.607160   -0.322913
     13         17           0       -2.764544    1.564923   -0.268075
     14          8           0        3.067069    0.027729   -0.410383
     15          1           0        1.499874   -1.070414    1.722445
     16          1           0        1.523817    1.101750    1.689248
     17          1           0       -0.097431    2.350408   -0.120429
     18          1           0       -0.038892   -2.336488   -0.160888
     19          1           0       -0.395718   -2.045908    1.494509
 ---------------------------------------------------------------------
 Rotational constants (GHZ):           0.9728533           0.4334437           0.3188589
 Standard basis: 6-31+G(d) (6D, 7F)
 There are   267 symmetry adapted cartesian basis functions of A   symmetry.
 There are   267 symmetry adapted basis functions of A   symmetry.
   267 basis functions,   488 primitive gaussians,   267 cartesian basis functions
    56 alpha electrons       56 beta electrons
       nuclear repulsion energy       987.3268067954 Hartrees.
 NAtoms=   19 NActive=   19 NUniq=   19 SFac= 1.00D+00 NAtFMM=   60 NAOKFM=F Big=F
 Integral buffers will be    131072 words long.
 Raffenetti 2 integral format.
 Two-electron integral symmetry is turned on.
 One-electron integrals computed using PRISM.
 NBasis=   267 RedAO= T EigKep=  1.49D-06  NBF=   267
 NBsUse=   267 1.00D-06 EigRej= -1.00D+00 NBFU=   267
 Initial guess from the checkpoint file:  "01fs.chk"
 B after Tr=    -0.000000   -0.000000    0.000000
         Rot=    0.999995    0.001921   -0.002322   -0.000861 Ang=   0.36 deg.
 ExpMin= 4.38D-02 ExpMax= 2.52D+04 ExpMxC= 3.78D+03 IAcc=3 IRadAn=         5 AccDes= 0.00D+00
 Harris functional with IExCor=  402 and IRadAn=       5 diagonalized for initial guess.
 HarFok:  IExCor=  402 AccDes= 0.00D+00 IRadAn=         5 IDoV= 1 UseB2=F ITyADJ=14
 ICtDFT=  3500011 ScaDFX=  1.000000  1.000000  1.000000  1.000000
 FoFCou: FMM=F IPFlag=           0 FMFlag=      100000 FMFlg1=           0
         NFxFlg=           0 DoJE=T BraDBF=F KetDBF=T FulRan=T
         wScrn=  0.000000 ICntrl=       500 IOpCl=  0 I1Cent=   200000004 NGrid=           0
         NMat0=    1 NMatS0=      1 NMatT0=    0 NMatD0=    1 NMtDS0=    0 NMtDT0=    0
 Petite list used in FoFCou.
 Requested convergence on RMS density matrix=1.00D-08 within 128 cycles.
 Requested convergence on MAX density matrix=1.00D-06.
 Requested convergence on             energy=1.00D-06.
 No special actions if energy rises.
 SCF Done:  E(RB3LYP) =  -1454.53582159     A.U. after   15 cycles
            NFock= 15  Conv=0.75D-08     -V/T= 2.0052
[...]
     6  C    1.546478   2.604892   2.851140   2.472245   1.512288
     7  C    1.528393   2.422230   3.599580   3.660592   3.213054
     8  C    2.422174   1.528436   2.534490   3.212989   3.659781
     9  H    3.030531   2.169219   1.099043   2.144590   2.915174
    10  O    3.596847   2.456741   3.060499   3.826467   4.543803
    11  O    2.456689   3.596903   4.705068   4.544954   3.826949
    12  Cl   4.029805   4.610808   4.120182   2.721729   1.742598
    13  Cl   4.611389   4.030065   2.772441   1.742638   2.721740
    14  O    2.391015   2.391086   3.541818   3.800500   3.800013
    15  H    1.096058   2.196305   3.369643   3.877151   3.446576
    16  H    2.196265   1.096065   2.157253   3.446562   3.877015
    17  H    3.504800   2.166102   1.092950   2.153112   3.353050
    18  H    2.166280   3.504791   3.903463   3.353298   2.153275
    19  H    2.168858   3.029482   3.079709   2.914141   2.144488
                    6          7          8          9         10
     6  C    0.000000
     7  C    2.534569   0.000000
     8  C    3.599108   2.290817   0.000000
     9  H    3.080712   4.308742   3.450899   0.000000
    10  O    4.704452   3.419347   1.197537   3.981413   0.000000
    11  O    3.060868   1.197548   3.419380   5.372456   4.477852
    12  Cl   2.772558   4.345404   5.132372   4.520985   5.954477
    13  Cl   4.120171   5.133763   4.345933   3.312140   4.569274
    14  O    3.541566   1.386995   1.387035   4.445054   2.258731
    15  H    2.157172   2.116585   3.140729   3.530326   4.273559
    16  H    3.369465   3.140502   2.116582   2.374099   2.781957
    17  H    3.903264   4.271827   2.639114   1.761653   2.704359
    18  H    1.092931   2.639826   4.271934   4.172493   5.419369
    19  H    1.099040   3.450842   4.307781   2.904033   5.371303
                   11         12         13         14         15
    11  O    0.000000
    12  Cl   4.569217   0.000000
    13  Cl   5.956355   3.258032   0.000000
    14  O    2.258730   5.000865   5.002116   0.000000
    15  H    2.781771   4.874503   5.605314   3.062380   0.000000
    16  H    4.273243   5.605032   4.874634   3.062214   2.350053
    17  H    5.419404   4.866692   2.764184   3.866555   4.260516
    18  H    2.705462   2.764251   4.867073   3.866982   2.564780
    19  H    3.981818   3.312823   4.519804   4.444540   2.373803
                   16         17         18         19
    16  H    0.000000
    17  H    2.564782   0.000000
    18  H    4.260516   4.924952   0.000000
    19  H    3.529497   4.171541   1.761699   0.000000
 Stoichiometry    C8H6Cl2O3
 Framework group  C1[X(C8H6Cl2O3)]
 Deg. of freedom    51
 Full point group                 C1      NOp   1
 Largest Abelian subgroup         C1      NOp   1
 Largest concise Abelian subgroup C1      NOp   1
                         Standard orientation:                         
 ---------------------------------------------------------------------
 Center     Atomic      Atomic             Coordinates (Angstroms)
 Number     Number       Type             X           Y           Z
 ---------------------------------------------------------------------
      1          6           0        1.291324   -0.769971    1.013088
      2          6           0        1.290486    0.771406    1.012739
      3          6           0       -0.105348    1.425821    1.136025
      4          6           0       -1.151848    0.670425    0.347984
      5          6           0       -1.150969   -0.671219    0.347771
      6          6           0       -0.103980   -1.425318    1.136544
      7          6           0        1.958164   -1.144693   -0.310125
      8          6           0        1.956680    1.146123   -0.310850
      9          1           0       -0.395174    1.452863    2.195821
     10          8           0        2.159138    2.239610   -0.755139
     11          8           0        2.162189   -2.238240   -0.753576
     12         17           0       -2.357232   -1.630088   -0.465954
     13         17           0       -2.359708    1.627942   -0.465048
     14          8           0        2.340863    0.000724   -0.992267
     15          1           0        1.931173   -1.173812    1.806088
     16          1           0        1.930200    1.176240    1.805352
     17          1           0       -0.045445    2.462554    0.795238
     18          1           0       -0.043501   -2.462397    0.796976
     19          1           0       -0.393843   -1.451171    2.196356
 ---------------------------------------------------------------------
 Rotational constants (GHZ):           0.8457927           0.5465758           0.3985162

 **********************************************************************

            Population analysis using the SCF Density.

 **********************************************************************

 Orbital symmetries:
       Occupied  (A) (A) (A) (A) (A) (A) (A) (A) (A) (A) (A) (A)
                 (A) (A) (A) (A) (A) (A) (A) (A) (A) (A) (A) (A)
                 (A) (A) (A) (A) (A) (A) (A) (A) (A) (A) (A) (A)
                 (A) (A) (A) (A) (A) (A) (A) (A) (A) (A) (A) (A)
                 (A) (A) (A) (A) (A) (A) (A) (A)
       Virtual   (A) (A) (A) (A) (A) (A) (A) (A) (A) (A) (A) (A)
                 (A) (A) (A) (A) (A) (A) (A) (A) (A) (A) (A) (A)
                 (A) (A) (A) (A) (A) (A) (A) (A) (A) (A) (A) (A)
                 (A) (A) (A) (A) (A) (A) (A) (A) (A) (A) (A) (A)
                 (A) (A) (A) (A) (A) (A) (A) (A) (A) (A) (A) (A)
                 (A) (A) (A) (A) (A) (A) (A) (A) (A) (A) (A) (A)
                 (A) (A) (A) (A) (A) (A) (A) (A) (A) (A) (A) (A)
                 (A) (A) (A) (A) (A) (A) (A) (A) (A) (A) (A) (A)
                 (A) (A) (A) (A) (A) (A) (A) (A) (A) (A) (A) (A)
                 (A) (A) (A) (A) (A) (A) (A) (A) (A) (A) (A) (A)
                 (A) (A) (A) (A) (A) (A) (A) (A) (A) (A) (A) (A)
                 (A) (A) (A) (A) (A) (A) (A) (A) (A) (A) (A) (A)
                 (A) (A) (A) (A) (A) (A) (A) (A) (A) (A) (A) (A)
                 (A) (A) (A) (A) (A) (A) (A) (A) (A) (A) (A) (A)
                 (A) (A) (A) (A) (A) (A) (A) (A) (A) (A) (A) (A)
                 (A) (A) (A) (A) (A) (A) (A) (A) (A) (A) (A) (A)
                 (A) (A) (A) (A) (A) (A) (A) (A) (A) (A) (A) (A)
                 (A) (A) (A) (A) (A) (A) (A)
 The electronic state is 1-A.
 Alpha  occ. eigenvalues -- -101.57679-101.57678 -19.25089 -19.18970 -19.18969
 Alpha  occ. eigenvalues --  -10.36265 -10.36264 -10.28506 -10.28423 -10.26150
 Alpha  occ. eigenvalues --  -10.26130 -10.24745 -10.24743  -9.49154  -9.49153
 Alpha  occ. eigenvalues --   -7.25581  -7.25577  -7.24603  -7.24602  -7.24532
 Alpha  occ. eigenvalues --   -7.24529  -1.16830  -1.10151  -1.06342  -0.93506
 Alpha  occ. eigenvalues --   -0.87808  -0.87807  -0.79939  -0.78426  -0.71004
 Alpha  occ. eigenvalues --   -0.69236  -0.65579  -0.60080  -0.55243  -0.55156
 Alpha  occ. eigenvalues --   -0.52014  -0.50584  -0.49592  -0.48967  -0.47942
 Alpha  occ. eigenvalues --   -0.47640  -0.45308  -0.44819  -0.43529  -0.42344
 Alpha  occ. eigenvalues --   -0.41879  -0.39944  -0.38544  -0.38188  -0.35646
 Alpha  occ. eigenvalues --   -0.35428  -0.34165  -0.33143  -0.32399  -0.30579
 Alpha  occ. eigenvalues --   -0.26606
 Alpha virt. eigenvalues --   -0.05667  -0.04672  -0.03814  -0.02726  -0.00642
 Alpha virt. eigenvalues --    0.00635   0.00941   0.01793   0.02297   0.03903
 Alpha virt. eigenvalues --    0.03961   0.04706   0.04788   0.05435   0.06957
 Alpha virt. eigenvalues --    0.07601   0.07748   0.07835   0.08591   0.08872
 Alpha virt. eigenvalues --    0.09388   0.10355   0.11540   0.11809   0.12171
 Alpha virt. eigenvalues --    0.12867   0.13196   0.13241   0.13709   0.14421
 Alpha virt. eigenvalues --    0.14432   0.15282   0.15531   0.16565   0.16588
 Alpha virt. eigenvalues --    0.17358   0.17851   0.18418   0.18543   0.19404
 Alpha virt. eigenvalues --    0.19528   0.19920   0.20883   0.21524   0.21738
 Alpha virt. eigenvalues --    0.22300   0.23095   0.23757   0.24238   0.24355
 Alpha virt. eigenvalues --    0.25038   0.25861   0.26928   0.27913   0.28892
 Alpha virt. eigenvalues --    0.29140   0.29294   0.30332   0.31238   0.32347
 Alpha virt. eigenvalues --    0.32507   0.32646   0.33440   0.34869   0.35640
 Alpha virt. eigenvalues --    0.35953   0.37321   0.38998   0.40331   0.41442
 Alpha virt. eigenvalues --    0.41866   0.42404   0.44620   0.47829   0.51992
 Alpha virt. eigenvalues --    0.53995   0.54878   0.57440   0.59602   0.59734
 Alpha virt. eigenvalues --    0.62031   0.62625   0.63646   0.65758   0.66038
 Alpha virt. eigenvalues --    0.66760   0.67166   0.68271   0.69510   0.70589
 Alpha virt. eigenvalues --    0.73056   0.73281   0.75430   0.75671   0.78012
 Alpha virt. eigenvalues --    0.79149   0.79319   0.79498   0.82135   0.82349
 Alpha virt. eigenvalues --    0.85643   0.85932   0.86525   0.88085   0.88868
 Alpha virt. eigenvalues --    0.89241   0.91714   0.92540   0.96321   0.97933
 Alpha virt. eigenvalues --    0.98322   0.98842   1.01260   1.03618   1.04108
 Alpha virt. eigenvalues --    1.08017   1.09165   1.09630   1.09797   1.10490
 Alpha virt. eigenvalues --    1.13881   1.15667   1.15859   1.18214   1.19348
 Alpha virt. eigenvalues --    1.21529   1.25019   1.28582   1.30026   1.31811
 Alpha virt. eigenvalues --    1.32297   1.33477   1.34785   1.34982   1.38588
 Alpha virt. eigenvalues --    1.38790   1.39422   1.41380   1.43953   1.44558
 Alpha virt. eigenvalues --    1.47813   1.50734   1.56525   1.59041   1.64221
 Alpha virt. eigenvalues --    1.65647   1.68615   1.70986   1.72330   1.74462
 Alpha virt. eigenvalues --    1.76840   1.77460   1.78754   1.80154   1.83353
 Alpha virt. eigenvalues --    1.85468   1.86787   1.87267   1.89263   1.90924
 Alpha virt. eigenvalues --    1.91272   1.94833   1.95271   2.00176   2.01475
 Alpha virt. eigenvalues --    2.02754   2.02941   2.07971   2.10822   2.14241
 Alpha virt. eigenvalues --    2.17985   2.20345   2.21979   2.27111   2.28230
 Alpha virt. eigenvalues --    2.35202   2.35667   2.42225   2.46708   2.49846
 Alpha virt. eigenvalues --    2.50009   2.52062   2.56106   2.58919   2.61571
 Alpha virt. eigenvalues --    2.65171   2.69100   2.71353   2.72100   2.76160
 Alpha virt. eigenvalues --    2.80169   2.85541   2.87435   2.92370   3.08580
 Alpha virt. eigenvalues --    3.19931   3.20606   3.27649   4.11901   4.21296
 Alpha virt. eigenvalues --    4.25921   4.29919   4.32153   4.39375   4.43477
 Alpha virt. eigenvalues --    4.43859   4.48500   4.57840   4.62524   4.74390
 Alpha virt. eigenvalues --    5.11765
          Condensed to atoms (all electrons):
               1          2          3          4          5          6
     1  C    9.760723  -3.108254   1.121624  -1.015486   0.921642  -1.918588
     2  C   -3.108254   9.757427  -1.914566   0.921199  -1.012673   1.122044
     3  C    1.121624  -1.914566  10.533456  -1.926825   0.632251  -1.530058
     4  C   -1.015486   0.921199  -1.926825  11.329537  -3.856197   0.633079
     5  C    0.921642  -1.012673   0.632251  -3.856197  11.320058  -1.923991
     6  C   -1.918588   1.122044  -1.530058   0.633079  -1.923991  10.536801
     7  C   -0.801377   0.976173  -0.001347  -0.217967   0.164071  -0.327206
     8  C    0.978361  -0.802202  -0.327762   0.163222  -0.216618  -0.003354
     9  H   -0.007011  -0.054831   0.421091  -0.016387  -0.044094  -0.010742
    10  O   -0.103519   0.005492  -0.069079   0.055040  -0.021493   0.017681
    11  O    0.005322  -0.103322   0.017529  -0.021305   0.054504  -0.068752
    12  Cl   0.109472  -0.028470   0.141293  -0.263677   0.105584  -0.501047
    13  Cl  -0.027931   0.108557  -0.499734   0.104449  -0.262242   0.140417
    14  O   -0.165580  -0.164617   0.029519  -0.027489  -0.027467   0.029509
    15  H    0.364834  -0.033487   0.000682  -0.001837   0.043509  -0.045531
    16  H   -0.033481   0.364791  -0.045492   0.043504  -0.001871   0.000667
    17  H    0.051340  -0.125597   0.515805  -0.162712   0.038580  -0.011358
    18  H   -0.125337   0.051277  -0.011353   0.038374  -0.162442   0.515586
    19  H   -0.055124  -0.006868  -0.010800  -0.043975  -0.016660   0.421366
               7          8          9         10         11         12
     1  C   -0.801377   0.978361  -0.007011  -0.103519   0.005322   0.109472
     2  C    0.976173  -0.802202  -0.054831   0.005492  -0.103322  -0.028470
     3  C   -0.001347  -0.327762   0.421091  -0.069079   0.017529   0.141293
     4  C   -0.217967   0.163222  -0.016387   0.055040  -0.021305  -0.263677
     5  C    0.164071  -0.216618  -0.044094  -0.021493   0.054504   0.105584
     6  C   -0.327206  -0.003354  -0.010742   0.017681  -0.068752  -0.501047
     7  C    6.138110  -0.906112  -0.003847   0.057891   0.381767   0.104137
     8  C   -0.906112   6.139194   0.009332   0.381542   0.057879  -0.022863
     9  H   -0.003847   0.009332   0.496434  -0.000013   0.000052  -0.001279
    10  O    0.057891   0.381542  -0.000013   8.169395  -0.000342  -0.000421
    11  O    0.381767   0.057879   0.000052  -0.000342   8.169342  -0.006916
    12  Cl   0.104137  -0.022863  -0.001279  -0.000421  -0.006916  17.159884
    13  Cl  -0.022939   0.104229   0.001936  -0.006909  -0.000413  -0.005674
    14  O    0.146644   0.145923  -0.000730  -0.074955  -0.075005   0.001458
    15  H   -0.057371   0.008540   0.000328  -0.000609  -0.003086  -0.000249
    16  H    0.008521  -0.057297  -0.005549  -0.003084  -0.000610  -0.000220
    17  H   -0.006031  -0.001948  -0.029498   0.004443   0.000042  -0.000160
    18  H   -0.001965  -0.006024  -0.000059   0.000042   0.004439   0.009645
    19  H    0.009415  -0.003885   0.001868   0.000052  -0.000016   0.001975
              13         14         15         16         17         18
     1  C   -0.027931  -0.165580   0.364834  -0.033481   0.051340  -0.125337
     2  C    0.108557  -0.164617  -0.033487   0.364791  -0.125597   0.051277
     3  C   -0.499734   0.029519   0.000682  -0.045492   0.515805  -0.011353
     4  C    0.104449  -0.027489  -0.001837   0.043504  -0.162712   0.038374
     5  C   -0.262242  -0.027467   0.043509  -0.001871   0.038580  -0.162442
     6  C    0.140417   0.029509  -0.045531   0.000667  -0.011358   0.515586
     7  C   -0.022939   0.146644  -0.057371   0.008521  -0.006031  -0.001965
     8  C    0.104229   0.145923   0.008540  -0.057297  -0.001948  -0.006024
     9  H    0.001936  -0.000730   0.000328  -0.005549  -0.029498  -0.000059
    10  O   -0.006909  -0.074955  -0.000609  -0.003084   0.004443   0.000042
    11  O   -0.000413  -0.075005  -0.003086  -0.000610   0.000042   0.004439
    12  Cl  -0.005674   0.001458  -0.000249  -0.000220  -0.000160   0.009645
    13  Cl  17.159569   0.001443  -0.000221  -0.000249   0.009652  -0.000161
    14  O    0.001443   8.437106   0.007246   0.007243   0.000700   0.000698
    15  H   -0.000221   0.007246   0.484526  -0.005054  -0.000112  -0.000413
    16  H   -0.000249   0.007243  -0.005054   0.484509  -0.000410  -0.000112
    17  H    0.009652   0.000700  -0.000112  -0.000410   0.452008   0.000004
    18  H   -0.000161   0.000698  -0.000413  -0.000112   0.000004   0.452023
    19  H   -0.001291  -0.000732  -0.005554   0.000329  -0.000059  -0.029493
              19
     1  C   -0.055124
     2  C   -0.006868
     3  C   -0.010800
     4  C   -0.043975
     5  C   -0.016660
     6  C    0.421366
     7  C    0.009415
     8  C   -0.003885
     9  H    0.001868
    10  O    0.000052
    11  O   -0.000016
    12  Cl   0.001975
    13  Cl  -0.001291
    14  O   -0.000732
    15  H   -0.005554
    16  H    0.000329
    17  H   -0.000059
    18  H   -0.029493
    19  H    0.496454
 Mulliken charges:
               1
     1  C    0.048372
     2  C    0.047926
     3  C   -1.076235
     4  C    0.265454
     5  C    0.265550
     6  C   -1.076525
     7  C    0.359435
     8  C    0.359844
     9  H    0.243000
    10  O   -0.411152
    11  O   -0.411109
    12  Cl   0.197528
    13  Cl   0.197515
    14  O   -0.270913
    15  H    0.243860
    16  H    0.243865
    17  H    0.265312
    18  H    0.265273
    19  H    0.243000
 Sum of Mulliken charges =  -0.00000
 Mulliken charges with hydrogens summed into heavy atoms:
               1
     1  C    0.292232
     2  C    0.291791
     3  C   -0.567922
     4  C    0.265454
     5  C    0.265550
     6  C   -0.568253
     7  C    0.359435
     8  C    0.359844
    10  O   -0.411152
    11  O   -0.411109
    12  Cl   0.197528
    13  Cl   0.197515
    14  O   -0.270913
 Electronic spatial extent (au):  <R**2>=           2749.7116
 Charge=             -0.0000 electrons
 Dipole moment (field-independent basis, Debye):
    X=             -0.3290    Y=              0.0016    Z=              5.5331  Tot=              5.5429
 Quadrupole moment (field-independent basis, Debye-Ang):
   XX=            -96.2658   YY=            -97.5174   ZZ=            -85.5998
   XY=              0.0083   XZ=              8.8728   YZ=              0.0080
 Traceless Quadrupole moment (field-independent basis, Debye-Ang):
   XX=             -3.1381   YY=             -4.3897   ZZ=              7.5279
   XY=              0.0083   XZ=              8.8728   YZ=              0.0080
 Octapole moment (field-independent basis, Debye-Ang**2):
  XXX=             -1.6059  YYY=             -0.0218  ZZZ=              1.7664  XYY=            -26.5992
  XXY=              0.0448  XXZ=             14.9223  XZZ=             -2.7808  YZZ=             -0.0106
  YYZ=             13.1396  XYZ=              0.0057
 Hexadecapole moment (field-independent basis, Debye-Ang**3):
 XXXX=          -1906.1945 YYYY=          -1257.1668 ZZZZ=           -409.9944 XXXY=              0.1293
 XXXZ=             60.6643 YYYX=              0.0189 YYYZ=              0.0712 ZZZX=              9.4718
 ZZZY=              0.0194 XXYY=           -569.3936 XXZZ=           -389.2772 YYZZ=           -268.1536
 XXYZ=             -0.0004 YYXZ=             36.9468 ZZXY=             -0.0132
 N-N= 1.013184154753D+03 E-N=-5.457383643130D+03  KE= 1.446777305189D+03
 Unable to Open any file for archive entry.
 1\1\GINC-NODE100\FOpt\RB3LYP\6-31+G(d)\C8H6Cl2O3\XZZENG\09-Feb-2023\0\
 \#opt b3lyp/6-31+g(d)\\01fs\\0,1\C,0.0048237034,-1.1266470444,1.255224
 183\C,0.1137680144,0.385924935,1.5310880037\C,-1.0936285121,1.22724794
 8,1.0555053787\C,-1.6314725758,0.7388529919,-0.2707631644\C,-1.7259048
 8,-0.5776810775,-0.5112436026\C,-1.295236561,-1.5705668771,0.545031963
 3\C,1.2318511807,-1.4409502779,0.3998865917\C,1.3936694319,0.807116239
 9,0.8095851605\H,-1.8875309269,1.1736363924,1.8136223066\O,1.873983485
 6,1.9012525687,0.7304646055\O,1.5577294656,-2.493075961,-0.0701731419\
 Cl,-2.4011121572,-1.2382486755,-1.9756187927\Cl,-2.1722861571,1.958811
 2548,-1.3914809365\O,1.9926731397,-0.2955085942,0.2185874531\H,0.11106
 65321,-1.7140245244,2.1744866289\H,0.2775332922,0.5920878287,2.5950603
 221\H,-0.7924731237,2.2753613809,0.9826767355\H,-1.1415168599,-2.55751
 44202,0.1014080013\H,-2.092936492,-1.6760740881,1.2936523042\\Version=
 ES64L-G16RevC.01\State=1-A\HF=-1454.5510429\RMSD=8.649e-09\RMSF=1.346e
 -05\Dipole=-1.2374212,-0.2353423,1.7801733\Quadrupole=-6.035624,-2.885
 4539,8.9210779,0.2816555,-0.4309852,-2.1887816\PG=C01 [X(C8H6Cl2O3)]\\
 @
 The archive entry for this job was punched.


 TIME IS IN FACT THE HERO OF THE PLOT. THE TIME
 WITH WHICH WE HAVE TO DEAL IS OF THE ORDER OF TWO
 BILLION YEARS...GIVEN SO MUCH TIME, THE "IMPOSSIBLE"
 BECOMES POSSIBLE, THE POSSIBLE PROBABLE, THE PROBABLE
 VIRTUALLY CERTAIN.  ONE HAS ONLY TO WAIT, TIME
 ITSELF PERFORMS THE MIRACLES.
 "ORIGIN OF LIFE" LECTURES, GEORGE WALD, 1954
 Job cpu time:       0 days  1 hours 36 minutes 39.1 seconds.
 Elapsed time:       0 days  1 hours 36 minutes 36.3 seconds.
 File lengths (MBytes):  RWF=     49 Int=      0 D2E=      0 Chk=      7 Scr=      1
 Normal termination of Gaussian 16 at Thu Feb  9 00:04:24 2023.
