Generated by MOKIT
SP        RHF                                                         MYBAS
Number of atoms                            I                2
Charge                                     I                0
Multiplicity                               I                1
Number of electrons                        I               14
Number of alpha electrons                  I                7
Number of beta electrons                   I                7
Number of basis functions                  I               60
Number of independent functions            I               60
Atomic numbers                             I   N=           2
           7           7
Nuclear charges                            R   N=           2
  7.00000000E+00  7.00000000E+00
Current cartesian coordinates              R   N=           6
  0.00000000E+00  0.00000000E+00  0.00000000E+00  0.00000000E+00  0.00000000E+00
  1.13383567E+01
Int Atom Types                             I   N=           2
           0           0
Number of contracted shells                I               20
Number of primitive shells                 I               52
Highest angular momentum                   I                3
Largest degree of contraction              I                8
Shell types                                I   N=          20
           0           0           0           0           1           1
           1          -2          -2          -3           0           0
           0           0           1           1           1          -2
          -2          -3
Number of primitives per shell             I   N=          20
           8           8           1           1           3           1
           1           1           1           1           8           8
           1           1           3           1           1           1
           1           1
Shell to atom map                          I   N=          20
           1           1           1           1           1           1
           1           1           1           1           2           2
           2           2           2           2           2           2
           2           2
Primitive exponents                        R   N=          52
  1.14200000E+04  1.71200000E+03  3.89300000E+02  1.10000000E+02  3.55700000E+01
  1.25400000E+01  4.64400000E+00  5.11800000E-01  1.14200000E+04  1.71200000E+03
  3.89300000E+02  1.10000000E+02  3.55700000E+01  1.25400000E+01  4.64400000E+00
  5.11800000E-01  1.29300000E+00  1.78700000E-01  2.66300000E+01  5.94800000E+00
  1.74200000E+00  5.55000000E-01  1.72500000E-01  1.65400000E+00  4.69000000E-01
  1.09300000E+00  1.14200000E+04  1.71200000E+03  3.89300000E+02  1.10000000E+02
  3.55700000E+01  1.25400000E+01  4.64400000E+00  5.11800000E-01  1.14200000E+04
  1.71200000E+03  3.89300000E+02  1.10000000E+02  3.55700000E+01  1.25400000E+01
  4.64400000E+00  5.11800000E-01  1.29300000E+00  1.78700000E-01  2.66300000E+01
  5.94800000E+00  1.74200000E+00  5.55000000E-01  1.72500000E-01  1.65400000E+00
  4.69000000E-01  1.09300000E+00
Contraction coefficients                   R   N=          52
  5.34980914E-04  4.13766310E-03  2.12509149E-02  8.25762988E-02  2.38413273E-01
  4.43431666E-01  3.55431909E-01 -8.70290176E-03 -1.98776985E-04 -1.54700349E-03
 -7.99256330E-03 -3.20255651E-02 -9.91102048E-02 -2.28292775E-01 -2.98182763E-01
  1.03700052E+00  1.00000000E+00  1.00000000E+00  3.98072123E-02  2.49002660E-01
  8.10479727E-01  1.00000000E+00  1.00000000E+00  1.00000000E+00  1.00000000E+00
  1.00000000E+00  5.34980914E-04  4.13766310E-03  2.12509149E-02  8.25762988E-02
  2.38413273E-01  4.43431666E-01  3.55431909E-01 -8.70290176E-03 -1.98776985E-04
 -1.54700349E-03 -7.99256330E-03 -3.20255651E-02 -9.91102048E-02 -2.28292775E-01
 -2.98182763E-01  1.03700052E+00  1.00000000E+00  1.00000000E+00  3.98072123E-02
  2.49002660E-01  8.10479727E-01  1.00000000E+00  1.00000000E+00  1.00000000E+00
  1.00000000E+00  1.00000000E+00
Coordinates of each shell                  R   N=          60
  0.00000000E+00  0.00000000E+00  0.00000000E+00  0.00000000E+00  0.00000000E+00
  0.00000000E+00  0.00000000E+00  0.00000000E+00  0.00000000E+00  0.00000000E+00
  0.00000000E+00  0.00000000E+00  0.00000000E+00  0.00000000E+00  0.00000000E+00
  0.00000000E+00  0.00000000E+00  0.00000000E+00  0.00000000E+00  0.00000000E+00
  0.00000000E+00  0.00000000E+00  0.00000000E+00  0.00000000E+00  0.00000000E+00
  0.00000000E+00  0.00000000E+00  0.00000000E+00  0.00000000E+00  0.00000000E+00
  0.00000000E+00  0.00000000E+00  1.13383567E+01  0.00000000E+00  0.00000000E+00
  1.13383567E+01  0.00000000E+00  0.00000000E+00  1.13383567E+01  0.00000000E+00
  0.00000000E+00  1.13383567E+01  0.00000000E+00  0.00000000E+00  1.13383567E+01
  0.00000000E+00  0.00000000E+00  1.13383567E+01  0.00000000E+00  0.00000000E+00
  1.13383567E+01  0.00000000E+00  0.00000000E+00  1.13383567E+01  0.00000000E+00
  0.00000000E+00  1.13383567E+01  0.00000000E+00  0.00000000E+00  1.13383567E+01
Num ILSW                                   I              100
ILSW                                       I   N=         100
           0           0           0           0           2           0
           0           0           0           0           0          -1
           5           0           0           0           0           0
           0           0           0           0           0           0
           1           1           0           0           0           0
           0           0      100000           0          -1           0
           0           0           0           0           0           0
           0           0           0           1           0           0
           0 -2000000000           1           0           0           0
           0           0           4          52           0           0
           0           0           0           0           0           0
           0           0           0           2           0           1
           0           0           0           0           0           0
           0           0           0           0           0           0
           0           0           0           0           0           0
           0           0           0           0           0           0
           0           0           0           0
Virial Ratio                               R      0.000000000000000E+00
Total Energy                               R      0.000000000000000E+00
Alpha Orbital Energies                     R   N=          60
 -1.58000149E+01 -1.58000035E+01 -1.02333716E+00 -1.02158118E+00 -2.93261980E-01
 -2.91992900E-01 -2.91992900E-01 -2.04557181E-01 -2.04557181E-01 -2.02920184E-01
  6.19122602E-01  6.19868572E-01  6.19868572E-01  6.20014139E-01  6.20014139E-01
  6.21001925E-01  6.70293914E-01  6.71488542E-01  1.22147496E+00  1.22155423E+00
  1.22155423E+00  1.22173698E+00  1.22173698E+00  1.22237716E+00  1.22237716E+00
  1.22256873E+00  1.22256873E+00  1.22265261E+00  3.15349144E+00  3.15394415E+00
  3.15394415E+00  3.15399571E+00  3.15399571E+00  3.15453214E+00  4.17014338E+00
  4.17014721E+00  4.17014721E+00  4.17015786E+00  4.17015786E+00  4.17016797E+00
  4.17016858E+00  4.17016858E+00  4.17017135E+00  4.17017135E+00  4.17017369E+00
  4.17017369E+00  4.17017807E+00  4.17017807E+00  4.74820550E+00  4.74820607E+00
  4.74820607E+00  4.74820744E+00  4.74820799E+00  4.74820799E+00  4.74820808E+00
  4.74820808E+00  4.74820928E+00  4.74820928E+00  5.60729873E+00  5.60752090E+00
Alpha MO coefficients                      R   N=        3600
  3.39463773E-11  1.10990390E-10  2.22904449E-11 -1.09616090E-10 -2.50997942E-01
  3.75440993E-02 -3.11051975E-09 -3.25690738E-01  4.87165963E-02 -3.90025170E-09
 -2.70579064E-01  4.04730302E-02 -5.51784326E-09 -7.16120968E-13 -8.04628921E-05
  1.20355840E-05  2.46035930E-13  1.08373392E-13 -4.69114728E-11  1.70075210E-03
 -2.54397326E-04  8.14127666E-13  3.59166734E-13  1.50907283E-11  5.70675806E-05
 -8.53612956E-06 -2.55071852E-11 -1.12514109E-11 -5.25850066E-09  2.51144511E-09
  3.39179621E-11  1.10851508E-10  2.22661897E-11 -1.09575684E-10  2.50997320E-01
 -3.75440061E-02  3.11671337E-09  3.25689956E-01 -4.87164792E-02  3.90829975E-09
  2.70577967E-01 -4.04728657E-02  5.52449655E-09 -7.18721404E-13 -8.04628525E-05
  1.20355780E-05  2.45935300E-13  1.08491291E-13 -4.68604602E-11  1.70075946E-03
 -2.54398430E-04  8.14218400E-13  3.59119527E-13 -1.50929552E-11 -5.70755873E-05
  8.53732686E-06  2.55074926E-11  1.12511549E-11 -5.25840289E-09  2.51139831E-09
 -2.93033880E-11 -9.57856362E-11 -1.92391387E-11  9.46514823E-11  3.75438878E-02
  2.50996529E-01  2.68983164E-09  4.87163302E-02  3.25688960E-01  3.37290666E-09
  4.04726579E-02  2.70576578E-01  4.76925024E-09  6.19842620E-13  1.20355357E-05
  8.04625693E-05  1.08438838E-13 -2.45888667E-13  4.04895548E-11 -2.54399914E-04
 -1.70076939E-03  3.59086659E-13 -8.14223123E-13 -1.30347256E-11 -8.53575078E-06
 -5.70650506E-05 -1.12513111E-11  2.55069554E-11  2.51143055E-09  5.25847030E-09
 -2.93096912E-11 -9.58154718E-11 -1.92440981E-11  9.46613004E-11 -3.75442177E-02
 -2.50998733E-01 -2.68854824E-09 -4.87167452E-02 -3.25691734E-01 -3.37123789E-09
 -4.04732379E-02 -2.70580453E-01 -4.76787132E-09  6.19315662E-13  1.20356263E-05
  8.04631752E-05  1.08508114E-13 -2.45944375E-13  4.04998659E-11 -2.54395841E-04
 -1.70074217E-03  3.59125336E-13 -8.14132138E-13  1.30344733E-11  8.53770564E-06
  5.70781173E-05  1.12513650E-11 -2.55076800E-11  2.51141283E-09  5.25843326E-09
 -1.16759744E-03 -5.72058834E-03 -1.00832463E-03  1.69000450E-03 -3.46484389E-09
 -2.18823563E-09 -2.54126413E-01 -4.35735698E-09 -2.75178712E-09 -3.30273462E-01
 -6.13043968E-09 -3.87375528E-09 -2.72106491E-01 -1.10390251E-04 -5.18798675E-13
 -3.27135843E-13  9.27869746E-12 -2.84064514E-12  2.09678629E-03 -4.13110848E-11
 -2.61455271E-11  1.25044513E-10 -3.82820336E-11  7.35883523E-05 -3.08778231E-11
 -1.95283338E-11 -4.54532722E-09  1.39153881E-09 -9.27924084E-17 -2.55358283E-17
  1.16761646E-03  5.72065039E-03  1.00833711E-03 -1.69006606E-03 -3.45894455E-09
 -2.19040913E-09 -2.54124692E-01 -4.34970129E-09 -2.75460785E-09 -3.30271306E-01
 -6.12410140E-09 -3.87609149E-09 -2.72103419E-01  1.10390059E-04  5.16893507E-13
  3.27825790E-13  9.27824874E-12 -2.84050800E-12 -2.09681166E-03  4.13512750E-11
  2.61306825E-11  1.25045612E-10 -3.82823549E-11  7.36023952E-05 -3.08794379E-11
 -1.95273605E-11  4.54522178E-09 -1.39150654E-09  9.31575190E-17  2.54793923E-17
  6.91951897E-01 -4.31301211E-03  2.70458215E-02 -1.01413266E-03  2.66648101E-14
  1.68986440E-14  3.59151392E-05 -6.07623503E-14 -3.84770386E-14 -1.60553340E-05
 -2.40387342E-14 -1.52390370E-14  4.43038742E-06 -4.85313074E-07 -1.33080644E-12
 -8.41610451E-13 -2.57008924E-10  7.86825398E-11 -1.34003543E-07 -1.25296494E-12
 -7.92383692E-13 -2.42268903E-10  7.41699254E-11  4.92304257E-08 -1.05767527E-15
 -6.68929507E-16 -1.62567295E-13  4.97696449E-14 -2.35154550E-20  6.28876940E-21
  6.91545446E-01 -4.31048403E-03  2.70299333E-02 -1.01354247E-03 -2.66961664E-14
 -1.71907890E-14 -3.58871167E-05  6.05679840E-14  3.85976647E-14  1.60542328E-05
  2.39791238E-14  1.50846487E-14 -4.41783213E-06 -4.84480877E-07 -1.33002476E-12
 -8.41116502E-13  2.56857916E-10 -7.86363099E-11 -1.33464920E-07 -1.25222846E-12
 -7.91917026E-13  2.42126523E-10 -7.41263364E-11 -4.92340379E-08  1.05805480E-15
  6.69129069E-16 -1.62634529E-13  4.97900929E-14  1.85147011E-20 -2.46806424E-20
 -6.91545160E-01  4.29856465E-03 -2.70331455E-02  1.00245979E-03  1.07974086E-13
  6.82609130E-14 -4.76452978E-05  2.30397218E-13  1.45709984E-13  1.83143271E-06
  1.81700415E-13  1.14864521E-13 -2.13734209E-05  4.60000308E-07  1.33019845E-12
  8.41227245E-13  2.56890535E-10 -7.86462967E-11  1.72861840E-08  1.25368827E-12
  7.92839990E-13  2.42268537E-10 -7.41698133E-11  5.37350239E-09 -7.19665516E-16
 -4.55108202E-16 -1.13710286E-13  3.48119394E-14  2.70470814E-20 -5.17751702E-21
  6.91951611E-01 -4.30109655E-03  2.70490325E-02 -1.00305451E-03  1.07812560E-13
  6.78243746E-14 -4.76664483E-05  2.30664301E-13  1.46208228E-13  1.84074643E-06
  1.81575552E-13  1.14741860E-13 -2.13761178E-05 -4.59723174E-07 -1.33098116E-12
 -8.41721339E-13  2.57041480E-10 -7.86925073E-11 -1.68346285E-08 -1.25442408E-12
 -7.93305639E-13  2.42410856E-10 -7.42133842E-11  5.34487730E-09 -7.19052876E-16
 -4.54725398E-16  1.13615954E-13 -3.47831956E-14  1.48070495E-20 -2.56438050E-20
 -8.56305410E-03 -4.21718487E-01 -1.18424880E-01 -2.52502828E-01  3.58493849E-12
  2.26699064E-12 -5.31893078E-04  4.33899879E-12  2.74427401E-12 -6.74423326E-04
  3.85676008E-12  2.43925435E-12 -1.31840289E-03  6.59251536E-06  1.36987559E-12
  8.66319174E-13  2.64385150E-10 -8.09407500E-11 -9.87126662E-05  1.98969040E-11
  1.25829332E-11  3.83674145E-09 -1.17460732E-09 -3.69149979E-06 -5.77739066E-14
 -3.65362016E-14 -9.21248277E-12  2.82037350E-12  7.55809841E-19 -4.45777597E-19
 -8.56312160E-03 -4.21721799E-01 -1.18425809E-01 -2.52504793E-01 -3.58195533E-12
 -2.26700379E-12  5.31881844E-04 -4.34145823E-12 -2.74403276E-12  6.74409738E-04
 -3.85594225E-12 -2.43885252E-12  1.31838993E-03  6.59194631E-06  1.36988654E-12
  8.66326263E-13 -2.64387015E-10  8.09413212E-11 -9.87203758E-05  1.98970575E-11
  1.25830312E-11 -3.83677198E-09  1.17461667E-09  3.69145411E-06  5.77732048E-14
  3.65358201E-14 -9.21226582E-12  2.82030860E-12 -2.06657505E-19  4.71618122E-19
  8.86521251E-03  4.22606570E-01  1.18547209E-01  2.51465545E-01  1.98333842E-11
  1.25429572E-11 -1.66683663E-03  2.54180156E-11  1.60746242E-11 -2.01660689E-03
  2.41769073E-11  1.52899883E-11 -1.90159928E-03 -1.30632695E-06 -1.33364149E-12
 -8.43402735E-13 -2.59488415E-10  7.94416291E-11 -8.90580802E-05 -1.99283075E-11
 -1.26027915E-11 -3.84731574E-09  1.17784461E-09 -2.56030161E-06 -2.00129823E-13
 -1.26563572E-13 -3.01641290E-11  9.23466252E-12 -8.75656240E-20  6.10914597E-19
 -8.86514344E-03 -4.22603270E-01 -1.18546283E-01 -2.51463563E-01  1.98318861E-11
  1.25425979E-11 -1.66685080E-03  2.54194453E-11  1.60745743E-11 -2.01662499E-03
  2.41774525E-11  1.52898897E-11 -1.90162185E-03  1.30571311E-06  1.33363082E-12
  8.43397895E-13 -2.59486175E-10  7.94409433E-11  8.90504445E-05  1.99281515E-11
  1.26026912E-11 -3.84728569E-09  1.17783541E-09 -2.56024073E-06 -2.00131946E-13
 -1.26565130E-13  3.01643885E-11 -9.23474050E-12 -8.50117749E-19  2.84061315E-19
 -5.10650601E-02 -6.04696073E-01 -4.83421070E-01  1.01093638E+00  2.79161626E-11
  1.77454382E-11 -5.23089680E-03 -3.42494066E-11 -2.16977060E-11 -2.18247098E-03
 -3.81594089E-11 -2.41677089E-11  3.68245933E-03  3.86473210E-04  7.48944266E-10
  4.73637932E-10  1.47994704E-07 -4.53081524E-08  4.26314006E-03 -4.05566672E-10
 -2.56483932E-10 -7.73864593E-08  2.36916408E-08  1.07867094E-04  7.20919135E-12
  4.55923259E-12  1.05576243E-09 -3.23218620E-10  1.89876743E-17  8.54179338E-18
 -5.10654757E-02 -6.04701500E-01 -4.83425513E-01  1.01094554E+00 -2.79393254E-11
 -1.76411428E-11  5.23093658E-03  3.42778208E-11  2.16783384E-11  2.18244549E-03
  3.81459094E-11  2.41002650E-11 -3.68251523E-03  3.86158723E-04  7.48950891E-10
  4.73641603E-10 -1.47996082E-07  4.53085733E-08  4.26332767E-03 -4.05572617E-10
 -2.56485551E-10  7.73867959E-08 -2.36917441E-08 -1.07864284E-04 -7.20927696E-12
 -4.55911910E-12  1.05573342E-09 -3.23209736E-10  2.17806300E-17  5.76839694E-18
  4.82809531E-02  6.00613495E-01  4.86158571E-01 -1.00943284E+00 -5.30085124E-11
 -3.34287826E-11  2.91844315E-03 -4.99155055E-11 -3.16056354E-11 -8.96938029E-04
  8.92594135E-11  5.64104874E-11 -4.09187619E-03  9.64825967E-05 -7.41301079E-10
 -4.68802476E-10 -1.46552702E-07  4.48666853E-08 -1.70539130E-03  4.25718178E-10
  2.69228857E-10  8.28608745E-08 -2.53676177E-08 -5.17620808E-05  1.20787671E-12
  7.63829676E-13  2.35774132E-10 -7.21815711E-11  3.25769345E-17  5.68681873E-18
 -4.82804642E-02 -6.00607962E-01 -4.86154200E-01  1.00942363E+00 -5.29630407E-11
 -3.34431356E-11  2.91841903E-03 -4.99527574E-11 -3.16213745E-11 -8.96935102E-04
  8.92625062E-11  5.64432577E-11 -4.09188208E-03 -9.67967388E-05  7.41293647E-10
  4.68799231E-10 -1.46551425E-07  4.48662958E-08  1.70553097E-03 -4.25717635E-10
 -2.69224641E-10  8.28596291E-08 -2.53672362E-08 -5.17615723E-05  1.20772287E-12
  7.63812087E-13 -2.35790798E-10  7.21866725E-11 -3.20931410E-17 -9.48943139E-18
  3.24855425E-03  2.23321623E-04 -7.62857086E-03  6.07462793E-03 -3.80968178E-08
 -2.42336642E-08  4.26283479E-01 -1.59936575E-08 -1.02074738E-08  2.83058258E-01
  5.63104800E-08  3.58402717E-08 -6.93888313E-01 -1.58997448E-03 -2.56914724E-10
 -1.62031805E-10 -5.93132287E-09  1.81574972E-09 -5.51413055E-03 -9.19066542E-10
 -5.79797859E-10 -2.04048604E-08  6.24684372E-09 -2.46568252E-05 -8.66010265E-10
 -5.47664555E-10 -1.21948592E-07  3.73342092E-08  7.31911109E-15  2.05364664E-15
  3.24858371E-03  2.23196530E-04 -7.62876434E-03  6.07490282E-03  3.83847596E-08
  2.41335096E-08 -4.26302255E-01  1.61831315E-08  1.01412376E-08 -2.83066075E-01
 -5.67780296E-08 -3.56772604E-08  6.93916060E-01 -1.58982153E-03 -2.56095620E-10
 -1.62357509E-10  5.93059457E-09 -1.81563466E-09 -5.51358356E-03 -9.16197138E-10
 -5.80813745E-10  2.04036681E-08 -6.24652476E-09  2.42584485E-05  8.66028449E-10
  5.47687511E-10 -1.21950489E-07  3.73347900E-08  7.40765498E-15  1.95712080E-15
 -4.53048755E-11  1.96828454E-10  3.01968888E-10 -4.30859472E-10  6.31422736E-02
  4.22244844E-01 -2.86028402E-08  4.16142795E-02  2.78282902E-01 -1.18627160E-08
 -1.02609354E-01 -6.86169001E-01  4.22204149E-08 -2.34787679E-10 -1.81464446E-04
 -1.21348866E-03 -6.81148465E-12  1.54680017E-11 -8.08033707E-10 -6.33586804E-04
 -4.23692035E-03 -1.37395754E-11  3.14359555E-11  3.00627394E-10 -2.66179128E-06
 -1.77998901E-05  2.96863264E-10 -6.72925181E-10 -6.71752009E-08 -1.40666522E-07
  4.56677188E-11 -1.96816191E-10 -3.02837409E-10  4.31573007E-10  6.31386989E-02
  4.22220962E-01 -2.86597589E-08  4.16127791E-02  2.78272878E-01 -1.19004134E-08
 -1.02604073E-01 -6.86133719E-01  4.23129572E-08  2.34591577E-10  1.81488179E-04
  1.21364723E-03  6.79794173E-12 -1.52541921E-11  8.07323648E-10  6.33667979E-04
  4.23746269E-03  1.37491517E-11 -3.12941957E-11  3.00609623E-10 -2.61483250E-06
 -1.74859353E-05  2.96846882E-10 -6.72906436E-10  6.71731434E-08  1.40662215E-07
  5.38819001E-11 -2.27781687E-10 -3.52962378E-10  5.01496552E-10 -4.22229236E-01
  6.31399362E-02  3.33030025E-08 -2.78276330E-01  4.16132953E-02  1.38577344E-08
  6.86145924E-01 -1.02605898E-01 -4.91860846E-08  2.71216577E-10  1.21358792E-03
 -1.81479309E-04 -1.53810644E-11 -6.82057006E-12  9.33345979E-10  4.23726732E-03
 -6.33638764E-04 -3.11902016E-11 -1.36529143E-11 -3.48104120E-10  1.77521202E-05
 -2.65463765E-06  6.72906083E-10  2.96854822E-10  1.40664109E-07 -6.71740476E-08
 -5.13733456E-11  2.28246211E-10  3.47376664E-10 -4.97378186E-10 -4.22236571E-01
  6.31410364E-02  3.30023180E-08 -2.78279450E-01  4.16137633E-02  1.36578461E-08
  6.86156797E-01 -1.02607529E-01 -4.86963468E-08 -2.72314805E-10 -1.21354798E-03
  1.81473316E-04  1.53713870E-11  6.84913703E-12 -9.37163751E-10 -4.23711572E-03
  6.33616020E-04  3.12008498E-11  1.37078044E-11 -3.48080359E-10  1.75336995E-05
 -2.62198527E-06  6.72924039E-10  2.96854619E-10 -1.40664629E-07  6.71742966E-08
 -3.29427610E-10 -1.59663956E-10  6.32188790E-10 -3.53258186E-10 -4.42605170E-01
  6.61100238E-02 -2.98385379E-08 -2.12863306E-01  3.17944744E-02 -2.40536665E-08
  6.73356093E-01 -1.00576294E-01  5.38217291E-08  5.16131450E-10 -5.93533090E-03
  8.86534647E-04  1.27992440E-10  5.66503589E-11  1.29156801E-09 -1.69646321E-02
  2.53393357E-03  2.37345532E-10  1.04866419E-10 -3.01437198E-10 -1.07622753E-03
  1.60751467E-04  5.02964299E-10  2.21982863E-10  1.05275392E-07 -5.02522155E-08
 -3.29484905E-10 -1.59342073E-10  6.32645977E-10 -3.53940295E-10  4.42598727E-01
 -6.61090538E-02  2.98912135E-08  2.12858207E-01 -3.17937067E-02  2.40789706E-08
 -6.73344565E-01  1.00574559E-01 -5.39020645E-08  5.15235383E-10 -5.93548844E-03
  8.86558297E-04  1.27987467E-10  5.64916915E-11  1.28901624E-09 -1.69649786E-02
  2.53398563E-03  2.37331920E-10  1.04755723E-10  3.01630044E-10  1.07638278E-03
 -1.60774626E-04 -5.02943251E-10 -2.21975098E-10  1.05269887E-07 -5.02495849E-08
  2.84488264E-10  1.37761670E-10 -5.46065495E-10  3.05272677E-10  6.61079792E-02
  4.42591533E-01  2.57876314E-08  3.17928401E-02  2.12852405E-01  2.07792731E-08
 -1.00572615E-01 -6.73331555E-01 -4.65073186E-08 -4.45057635E-10  8.86566539E-04
  5.93554362E-03  5.64865809E-11 -1.27857370E-10 -1.11351959E-09  2.53401070E-03
  1.69651465E-02  1.04744297E-10 -2.37241594E-10  2.60311982E-10  1.60743670E-04
  1.07617553E-03  2.21964578E-10 -5.02923394E-10 -5.02494839E-08 -1.05269677E-07
  2.84174169E-10  1.37427516E-10 -5.45659286E-10  3.05313593E-10 -6.61110984E-02
 -4.42612364E-01 -2.57779983E-08 -3.17953410E-02 -2.12869108E-01 -2.07745813E-08
  1.00578237E-01  6.73369103E-01  4.64925507E-08 -4.45241824E-10  8.86526406E-04
  5.93527573E-03  5.64909958E-11 -1.27987921E-10 -1.11409758E-09  2.53390851E-03
  1.69644642E-02  1.04754931E-10 -2.37334208E-10 -2.60329917E-10 -1.60782425E-04
 -1.07643480E-03 -2.21993755E-10  5.02983880E-10 -5.02523163E-08 -1.05275602E-07
 -1.69595134E-03  8.94865761E-04  4.89407201E-03 -4.62798777E-03 -3.22132046E-08
 -2.03479938E-08 -4.47668285E-01 -2.59993314E-08 -1.64307900E-08 -2.13642654E-01
  5.82777199E-08  3.68190785E-08  6.80612933E-01 -7.87157608E-03  4.12574452E-10
  2.61229075E-10 -5.52471425E-08  1.69136677E-08 -2.21352845E-02  1.07052095E-09
  6.77934747E-10 -1.00974222E-07  3.09129024E-08 -1.34813737E-03  6.06857601E-10
  3.83853674E-10  9.11433036E-08 -2.79032588E-08  1.70358697E-14  4.64702172E-15
  1.69577133E-03 -8.94952045E-04 -4.89372556E-03  4.62779285E-03 -3.21642680E-08
 -2.03649001E-08 -4.47651959E-01 -2.59758351E-08 -1.64387231E-08 -2.13629418E-01
  5.82033615E-08  3.68445458E-08  6.80583390E-01  7.87188441E-03 -4.13252146E-10
 -2.61010516E-10 -5.52491330E-08  1.69143619E-08  2.21360487E-02 -1.07244090E-09
 -6.77276816E-10 -1.00978715E-07  3.09143401E-08 -1.34841109E-03  6.06934667E-10
  3.83756522E-10 -9.11349525E-08  2.79007030E-08 -1.70219894E-14 -4.64569302E-15
 -2.51430948E-03 -1.93873033E-04  5.76752956E-03 -4.34211408E-03  3.47391895E-09
  2.19856548E-09  4.58225711E-03  9.45155950E-10  5.97732158E-10  7.81172020E-06
 -4.79524889E-09 -3.03493220E-09 -6.13226975E-03  2.66603410E-01 -5.05814140E-08
 -3.18429420E-08  2.53280581E-05 -7.75411543E-06  5.30623478E-01 -9.78720351E-08
 -6.16068660E-08  4.92715080E-05 -1.50843368E-05  6.05082504E-04 -6.02332850E-11
 -3.78021383E-11  3.34671896E-08 -1.02458880E-08  1.46273318E-16 -1.54707082E-17
 -2.51383518E-03 -1.93070404E-04  5.76720786E-03 -4.34270300E-03 -3.47307534E-09
 -2.19459241E-09 -4.57884803E-03 -9.44920741E-10 -5.97411727E-10 -6.95167707E-06
  4.79386228E-09  3.02893831E-09  6.12762200E-03  2.66646912E-01 -5.06378432E-08
 -3.21682102E-08 -2.53269099E-05  7.75375816E-06  5.30707564E-01 -9.79841139E-08
 -6.22528585E-08 -4.92692417E-05  1.50836317E-05 -6.05126359E-04  6.03394773E-11
  3.84490173E-11  3.34659065E-08 -1.02454879E-08  1.47847565E-16  9.45048547E-17
  1.06878710E-09  1.54914592E-09 -9.76882562E-10 -8.79273926E-10 -3.38727810E-03
  5.06739654E-04 -3.59647292E-09 -6.45204619E-05  9.65234010E-06 -9.17222074E-10
  4.77962065E-03 -7.15035268E-04  4.91060776E-09  4.49593933E-08 -2.64031644E-01
  3.94993464E-02  1.28101799E-07  5.64827521E-08  8.69237613E-08 -5.24488777E-01
  7.84639432E-02  2.49142723E-07  1.09851631E-07  3.14479163E-11 -5.28921767E-04
  7.91271236E-05  1.77933294E-10  7.84562895E-11 -5.17219449E-10  2.47035888E-10
 -1.06942641E-09 -1.54987867E-09  9.77657791E-10  8.79455083E-10 -3.38369654E-03
  5.06203645E-04 -3.59645085E-09 -6.36134064E-05  9.51659065E-06 -9.17067147E-10
  4.77468403E-03 -7.14296464E-04  4.91044255E-09 -4.49544154E-08  2.64095937E-01
 -3.95089681E-02 -1.28078743E-07 -5.65123424E-08 -8.69138177E-08  5.24613295E-01
 -7.84825779E-02 -2.49097147E-07 -1.09910101E-07  3.14361887E-11 -5.28997306E-04
  7.91384280E-05  1.77896576E-10  7.84918974E-11  5.17812776E-10 -2.47319243E-10
  9.21819534E-10  1.33829946E-09 -8.40363816E-10 -7.62415002E-10 -5.06397495E-04
 -3.38499232E-03 -3.10323707E-09 -9.56352128E-06 -6.39271121E-05 -7.92254379E-10
  7.14563899E-04  4.77647169E-03  4.23732802E-09  3.90059446E-08 -3.95050117E-02
 -2.64069491E-01 -5.65089331E-08  1.28161088E-07  7.54232955E-08 -7.84749133E-02
 -5.24562061E-01 -1.09903311E-07  2.49259920E-07  2.75569928E-11 -7.91330518E-05
 -5.28961370E-04 -7.84885184E-11  1.78005941E-10 -2.47226942E-10 -5.17618970E-10
 -9.24901414E-10 -1.33825938E-09  8.47714006E-10  7.56572355E-10 -5.06545811E-04
 -3.38598237E-03 -3.10934459E-09 -9.60540934E-06 -6.42067545E-05 -7.92151709E-10
  7.14767841E-04  4.77783305E-03  4.24533818E-09 -3.86543462E-08  3.95033033E-02
  2.64058094E-01  5.64861639E-08 -1.28019430E-07 -7.47235470E-08  7.84716089E-02
  5.24540018E-01  1.09858324E-07 -2.48979945E-07  2.67568124E-11 -7.91325011E-05
 -5.28957712E-04 -7.84598167E-11  1.77824199E-10  2.47128447E-10  5.17412903E-10
  2.84778923E-07  2.40036103E-07 -4.28009115E-07  6.38095693E-08 -4.51632565E-09
  5.15954627E-09  1.67587435E-06 -1.12271110E-09  1.28253675E-09  3.93628168E-07
  6.21784332E-09 -7.10341583E-09 -2.26237150E-06 -2.32377324E-05  8.40279604E-08
 -9.59623093E-08 -2.56973132E-01  7.60790050E-02 -4.49086064E-05  1.62719807E-07
 -1.85829289E-07 -5.07896086E-01  1.50366805E-01 -2.04127315E-08  8.81740603E-11
 -1.00676406E-10 -3.30260703E-04  9.77763921E-05  1.70155140E-11  4.81901642E-12
 -2.84703394E-07 -2.39904123E-07  4.27963478E-07 -6.39164239E-08  4.51605759E-09
 -5.15853264E-09  1.67579761E-06  1.12273231E-09 -1.28256564E-09  3.93600899E-07
 -6.21745526E-09  7.10200594E-09 -2.26224321E-06  2.32413355E-05  8.40552575E-08
 -9.60467184E-08 -2.56912779E-01  7.60611371E-02  4.49157765E-05  1.62774035E-07
 -1.85996983E-07 -5.07778723E-01  1.50332059E-01 -2.04196399E-08 -8.82308529E-11
  1.00838871E-10  3.30187404E-04 -9.77546913E-05 -1.70169118E-11 -4.82210513E-12
  2.63431375E-09  2.22044437E-09 -3.95922828E-09  5.90225927E-10  5.15916832E-09
  4.51701818E-09  1.55026952E-08  1.28258638E-09  1.12261202E-09  3.64122621E-09
 -7.10288200E-09 -6.21876312E-09 -2.09280568E-08 -2.14957365E-07 -9.60029851E-08
 -8.39623263E-08  7.60790053E-02  2.56973133E-01 -4.15420640E-07 -1.85910097E-07
 -1.62589416E-07  1.50366806E-01  5.07896088E-01 -1.88822101E-10 -1.00756101E-10
 -8.80455241E-11  9.77763924E-05  3.30260704E-04  4.81932888E-12 -1.70152817E-11
 -2.63383836E-09 -2.21946237E-09  3.95909469E-09 -5.91187357E-10 -5.15900224E-09
 -4.51525609E-09  1.55018295E-08 -1.28270849E-09 -1.12279312E-09  3.64091083E-09
  7.10285900E-09  6.21638750E-09 -2.09266190E-08  2.14996083E-07 -9.60059836E-08
 -8.41209411E-08  7.60611374E-02  2.56912780E-01  4.15497616E-07 -1.85916059E-07
 -1.62904527E-07  1.50332060E-01  5.07778725E-01 -1.88897224E-10  1.00758678E-10
  8.83599471E-11 -9.77546916E-05 -3.30187405E-04 -4.82193947E-12  1.70168511E-11
  1.97729582E-11  2.50564436E-10  2.06599702E-10 -4.34361231E-10  1.32749126E-09
  1.13867602E-09  3.47410883E-10  8.48628630E-13 -2.17049291E-13 -8.08379005E-12
 -1.85222277E-09 -1.58885905E-09 -4.60789567E-10  2.09238764E-08  1.04501522E-07
  8.99973338E-08  7.91458062E-02  2.59265756E-01  4.16587279E-08  2.07669205E-07
  1.78842585E-07  1.53869026E-01  5.04044008E-01  4.80883617E-11  2.10388160E-10
  1.81126860E-10  1.05361936E-04  3.45144530E-04 -2.74383623E-12  1.00084736E-11
  1.96891872E-11  2.50439706E-10  2.06672974E-10 -4.34287986E-10  1.32701306E-09
  1.14544751E-09 -3.47421053E-10  5.78103615E-13  1.46666762E-12  7.98563266E-12
 -1.85138732E-09 -1.59817055E-09  4.60917604E-10  2.09238890E-08 -1.04509383E-07
 -8.98734968E-08 -7.91639703E-02 -2.59325258E-01  4.16588139E-08 -2.07684424E-07
 -1.78602891E-07 -1.53904936E-01 -5.04161641E-01 -4.80891392E-11  2.10399856E-10
  1.80995552E-10  1.05384488E-04  3.45218406E-04 -2.74351333E-12  1.00037985E-11
  2.46299643E-08  3.12027908E-07  2.57262560E-07 -5.40896848E-07 -1.14205340E-09
  1.32530976E-09  4.32522683E-07 -6.47553311E-13  3.15796741E-13 -1.00545152E-08
  1.59351844E-09 -1.84924845E-09 -5.73723004E-07  2.60562519E-05 -8.99361754E-08
  1.04540090E-07 -2.59265755E-01  7.91458058E-02  5.18771426E-05 -1.78724198E-07
  2.07743863E-07 -5.04044006E-01  1.53869025E-01  5.98833209E-08 -1.81061181E-10
  2.10429669E-10 -3.45144529E-04  1.05361936E-04 -1.00084622E-11 -2.74404888E-12
  2.47477955E-08  3.12165081E-07  2.57122213E-07 -5.40935694E-07 -1.14222201E-09
  1.32901655E-09 -4.32633573E-07 -7.42036350E-13  1.21865927E-12  1.00340516E-08
  1.59380418E-09 -1.85433252E-09  5.73868463E-07  2.60543474E-05  8.99346701E-08
 -1.04470807E-07  2.59325257E-01 -7.91639699E-02  5.18734630E-05  1.78721306E-07
 -2.07609751E-07  5.04161639E-01 -1.53904935E-01 -5.98821812E-08 -1.81061285E-10
  2.10358732E-10 -3.45218404E-04  1.05384488E-04 -1.00039312E-11 -2.74335665E-12
  1.44106329E-09  1.36204291E-09 -2.04050658E-09  1.37469006E-10  2.09825993E-03
  1.40185240E-02 -4.72501015E-10  4.92401502E-04  3.28974597E-03  3.71359164E-10
 -2.86238189E-03 -1.91236408E-02  2.75366863E-10 -3.82420086E-08 -4.02415294E-02
 -2.68854597E-01  5.07495290E-08 -1.15055079E-07 -7.61964018E-08 -7.78806425E-02
 -5.20322388E-01  1.00329437E-07 -2.27459382E-07 -8.11919543E-11 -4.43402453E-05
 -2.96238206E-04  7.40030492E-11 -1.67775450E-10 -1.05586363E-09 -2.21023596E-09
  1.44156690E-09  1.36142446E-09 -2.04227557E-09  1.39380199E-10 -2.09826666E-03
 -1.40185688E-02  4.54781938E-10 -4.92445778E-04 -3.29004187E-03 -3.75375182E-10
  2.86242989E-03  1.91239613E-02 -2.51504458E-10 -3.85012370E-08 -4.02432021E-02
 -2.68865787E-01  5.07723329E-08 -1.15160453E-07 -7.66971330E-08 -7.78839679E-02
 -5.20344637E-01  1.00373763E-07 -2.27664213E-07  8.14288019E-11  4.43423310E-05
  2.96252172E-04 -7.40343953E-11  1.67920831E-10 -1.05581412E-09 -2.21013227E-09