# this is a generated file! do not edit.
WorkDir=/public/home/xzzeng/work/HQC/N2/cc-pvtz/NO/PES/entropy/3.2/results/scratch
Project=n2
SubProject=
GeoDir=/public/home/xzzeng/work/HQC/N2/cc-pvtz/NO/PES/entropy/3.2/results/scratch/n2.GEO
MOLCAS=/public/home/xzzeng/soft/OpenMolcas/build
MOLCAS_CURRENT_PROGRAM=dmrgscf
MOLCAS_DISK=20000
MOLCAS_DRIVER=/public/home/xzzeng/soft/OpenMolcas/build/pymolcas
MOLCAS_ITER=0
MOLCAS_MEM=12000
MOLCAS_NPROCS=1
MOLCAS_OUTPUT=/public/home/xzzeng/work/HQC/N2/cc-pvtz/NO/PES/entropy/3.2/results/work_dir/n2/dmrg
MOLCAS_PROJECT=n2
MOLCAS_SOURCE=/public/home/xzzeng/soft/OpenMolcas
MOLCAS_STRUCTURE=0
MOLCAS_SUBMIT_DIR=/public/home/xzzeng/work/HQC/N2/cc-pvtz/NO/PES/entropy/3.2/results/work_dir/n2/dmrg
