 Entering Gaussian System, Link 0=g16
 Initial command:
 /public/home/zyli/senxu/soft/g16/l1.exe "/tmp/Gau-11811.inp" -scrdir="/tmp/"
 Entering Link 1 = /public/home/zyli/senxu/soft/g16/l1.exe PID=     11812.
  
 Copyright (c) 1988-2019, Gaussian, Inc.  All Rights Reserved.
  
 This is part of the Gaussian(R) 16 program.  It is based on
 the Gaussian(R) 09 system (copyright 2009, Gaussian, Inc.),
 the Gaussian(R) 03 system (copyright 2003, Gaussian, Inc.),
 the Gaussian(R) 98 system (copyright 1998, Gaussian, Inc.),
 the Gaussian(R) 94 system (copyright 1995, Gaussian, Inc.),
 the Gaussian 92(TM) system (copyright 1992, Gaussian, Inc.),
 the Gaussian 90(TM) system (copyright 1990, Gaussian, Inc.),
 the Gaussian 88(TM) system (copyright 1988, Gaussian, Inc.),
 the Gaussian 86(TM) system (copyright 1986, Carnegie Mellon
 University), and the Gaussian 82(TM) system (copyright 1983,
 Carnegie Mellon University). Gaussian is a federally registered
 trademark of Gaussian, Inc.
  
 This software contains proprietary and confidential information,
 including trade secrets, belonging to Gaussian, Inc.
  
 This software is provided under written license and may be
 used, copied, transmitted, or stored only in accord with that
 written license.
  
 The following legend is applicable only to US Government
 contracts under FAR:
  
                    RESTRICTED RIGHTS LEGEND
  
 Use, reproduction and disclosure by the US Government is
 subject to restrictions as set forth in subparagraphs (a)
 and (c) of the Commercial Computer Software - Restricted
 Rights clause in FAR 52.227-19.
  
 Gaussian, Inc.
 340 Quinnipiac St., Bldg. 40, Wallingford CT 06492
  
  
 ---------------------------------------------------------------
 Warning -- This program may not be used in any manner that
 competes with the business of Gaussian, Inc. or will provide
 assistance to any competitor of Gaussian, Inc.  The licensee
 of this program is prohibited from giving any competitor of
 Gaussian, Inc. access to this program.  By using this program,
 the user acknowledges that Gaussian, Inc. is engaged in the
 business of creating and licensing software in the field of
 computational chemistry and represents and warrants to the
 licensee that it is not a competitor of Gaussian, Inc. and that
 it will not use this program in any manner prohibited above.
 ---------------------------------------------------------------
  

 Cite this work as:
 Gaussian 16, Revision C.01,
 M. J. Frisch, G. W. Trucks, H. B. Schlegel, G. E. Scuseria, 
 M. A. Robb, J. R. Cheeseman, G. Scalmani, V. Barone, 
 G. A. Petersson, H. Nakatsuji, X. Li, M. Caricato, A. V. Marenich, 
 J. Bloino, B. G. Janesko, R. Gomperts, B. Mennucci, H. P. Hratchian, 
 J. V. Ortiz, A. F. Izmaylov, J. L. Sonnenberg, D. Williams-Young, 
 F. Ding, F. Lipparini, F. Egidi, J. Goings, B. Peng, A. Petrone, 
 T. Henderson, D. Ranasinghe, V. G. Zakrzewski, J. Gao, N. Rega, 
 G. Zheng, W. Liang, M. Hada, M. Ehara, K. Toyota, R. Fukuda, 
 J. Hasegawa, M. Ishida, T. Nakajima, Y. Honda, O. Kitao, H. Nakai, 
 T. Vreven, K. Throssell, J. A. Montgomery, Jr., J. E. Peralta, 
 F. Ogliaro, M. J. Bearpark, J. J. Heyd, E. N. Brothers, K. N. Kudin, 
 V. N. Staroverov, T. A. Keith, R. Kobayashi, J. Normand, 
 K. Raghavachari, A. P. Rendell, J. C. Burant, S. S. Iyengar, 
 J. Tomasi, M. Cossi, J. M. Millam, M. Klene, C. Adamo, R. Cammi, 
 J. W. Ochterski, R. L. Martin, K. Morokuma, O. Farkas, 
 J. B. Foresman, and D. J. Fox, Gaussian, Inc., Wallingford CT, 2019.
 
 ******************************************
 Gaussian 16:  ES64L-G16RevC.01  3-Jul-2019
                 9-Feb-2023 
 ******************************************
 %oldchk=is_cc-pvdz.chk
 %chk=is_cc-pvdz_nlmo.chk
 %mem=8GB
 %nprocshared=8
 Will use up to    8 processors via shared memory.
 Copying data from "is_cc-pvdz.chk" to current chk file "is_cc-pvdz_nlmo.chk"
 IOpt=  2 FromEx=T IUOpen= 4 IOptOp= 5 NList=   0 IFRang= 0 IUIn= 4 IUOut= 2.
 ----------------------------------------------------------------------
 #p RHF/cc-pvdz nosymm int=nobasistransform guess(read,only) geom=allch
 eck pop=SaveNLMOs
 ----------------------------------------------------------------------
 1/29=7,38=1,172=1/1;
 2/12=2,15=1,40=1/2;
 3/5=16,11=1,14=-4,25=1,30=1,60=-1,89=1,116=1/1,2,3;
 4/5=1/1;
 6/7=3,28=1,40=1,73=2/1,7;
 99/5=5/99;
 Leave Link    1 at Thu Feb  9 09:22:36 2023, MaxMem=  1073741824 cpu:               0.7 elap:               0.1
 (Enter /public/home/zyli/senxu/soft/g16/l101.exe)
 Structure from the checkpoint file:  "is_cc-pvdz_nlmo.chk"
 -----
 title
 -----
 Charge =  0 Multiplicity = 1
 Z-Matrix found in chk file.
 C,0,-1.737892,-0.695062,0.982391
 C,0,-1.738139,0.69449,0.982429
 C,0,0.35662,1.42222,1.530028
 C,0,1.180091,0.710657,0.676602
 C,0,1.180338,-0.710331,0.6766
 C,0,0.357064,-1.422178,1.529983
 C,0,-1.719189,-1.141108,-0.434892
 C,0,-1.719632,1.140631,-0.434831
 H,0,0.286183,2.499337,1.426653
 H,0,0.286936,-2.499309,1.426548
 O,0,-1.804047,2.240753,-0.904682
 O,0,-1.803117,-2.241242,-0.904808
 H,0,0.118513,-1.021871,2.506959
 H,0,0.118222,1.021801,2.506997
 H,0,-2.144346,-1.340806,1.749622
 H,0,-2.144786,1.340058,1.749707
 Cl,0,2.001717,-1.586731,-0.591033
 Cl,0,2.001106,1.587334,-0.591073
 O,0,-1.583371,-0.000185,-1.230579
 Recover connectivity data from disk.
 ITRead=  0  0  0  0  0  0  0  0  0  0  0  0  0  0  0  0  0  0  0
 MicOpt= -1 -1 -1 -1 -1 -1 -1 -1 -1 -1 -1 -1 -1 -1 -1 -1 -1 -1 -1
 NAtoms=     19 NQM=       19 NQMF=       0 NMMI=      0 NMMIF=      0
                NMic=       0 NMicF=      0.
                    Isotopes and Nuclear Properties:
 (Nuclear quadrupole moments (NQMom) in fm**2, nuclear magnetic moments (NMagM)
  in nuclear magnetons)

  Atom         1           2           3           4           5           6           7           8           9          10
 IAtWgt=          12          12          12          12          12          12          12          12           1           1
 AtmWgt=  12.0000000  12.0000000  12.0000000  12.0000000  12.0000000  12.0000000  12.0000000  12.0000000   1.0078250   1.0078250
 NucSpn=           0           0           0           0           0           0           0           0           1           1
 AtZEff=   3.6000000   3.6000000   3.6000000   3.6000000   3.6000000   3.6000000   3.6000000   3.6000000   1.0000000   1.0000000
 NQMom=    0.0000000   0.0000000   0.0000000   0.0000000   0.0000000   0.0000000   0.0000000   0.0000000   0.0000000   0.0000000
 NMagM=    0.0000000   0.0000000   0.0000000   0.0000000   0.0000000   0.0000000   0.0000000   0.0000000   2.7928460   2.7928460
 AtZNuc=   6.0000000   6.0000000   6.0000000   6.0000000   6.0000000   6.0000000   6.0000000   6.0000000   1.0000000   1.0000000

  Atom        11          12          13          14          15          16          17          18          19
 IAtWgt=          16          16           1           1           1           1          35          35          16
 AtmWgt=  15.9949146  15.9949146   1.0078250   1.0078250   1.0078250   1.0078250  34.9688527  34.9688527  15.9949146
 NucSpn=           0           0           1           1           1           1           3           3           0
 AtZEff=   5.6000000   5.6000000   1.0000000   1.0000000   1.0000000   1.0000000  14.2400000  14.2400000   5.6000000
 NQMom=    0.0000000   0.0000000   0.0000000   0.0000000   0.0000000   0.0000000  -8.1650000  -8.1650000   0.0000000
 NMagM=    0.0000000   0.0000000   2.7928460   2.7928460   2.7928460   2.7928460   0.8218740   0.8218740   0.0000000
 AtZNuc=   8.0000000   8.0000000   1.0000000   1.0000000   1.0000000   1.0000000  17.0000000  17.0000000   8.0000000
 Leave Link  101 at Thu Feb  9 09:22:36 2023, MaxMem=  1073741824 cpu:               1.2 elap:               0.2
 (Enter /public/home/zyli/senxu/soft/g16/l202.exe)
                          Input orientation:                          
 ---------------------------------------------------------------------
 Center     Atomic      Atomic             Coordinates (Angstroms)
 Number     Number       Type             X           Y           Z
 ---------------------------------------------------------------------
      1          6           0       -1.737892   -0.695062    0.982391
      2          6           0       -1.738139    0.694490    0.982429
      3          6           0        0.356620    1.422220    1.530028
      4          6           0        1.180091    0.710657    0.676602
      5          6           0        1.180338   -0.710331    0.676600
      6          6           0        0.357064   -1.422178    1.529983
      7          6           0       -1.719189   -1.141108   -0.434892
      8          6           0       -1.719632    1.140631   -0.434831
      9          1           0        0.286183    2.499337    1.426653
     10          1           0        0.286936   -2.499309    1.426548
     11          8           0       -1.804047    2.240753   -0.904682
     12          8           0       -1.803117   -2.241242   -0.904808
     13          1           0        0.118513   -1.021871    2.506959
     14          1           0        0.118222    1.021801    2.506997
     15          1           0       -2.144346   -1.340806    1.749622
     16          1           0       -2.144786    1.340058    1.749707
     17         17           0        2.001717   -1.586731   -0.591033
     18         17           0        2.001106    1.587334   -0.591073
     19          8           0       -1.583371   -0.000185   -1.230579
 ---------------------------------------------------------------------
                    Distance matrix (angstroms):
                    1          2          3          4          5
     1  C    0.000000
     2  C    1.389552   0.000000
     3  C    3.028163   2.284178   0.000000
     4  C    3.253333   2.934256   1.383027   0.000000
     5  C    2.934247   3.253392   2.440210   1.420988   0.000000
     6  C    2.284162   3.028197   2.844398   2.440209   1.383029
     7  C    1.485933   2.319176   3.839342   3.615284   3.135002
     8  C    2.319185   1.485937   2.872418   3.135053   3.615407
     9  H    3.807681   2.748215   1.084356   2.135655   3.415269
    10  H    2.748183   3.807693   3.923513   3.415264   2.135657
    11  O    3.490620   2.440586   3.356530   3.707659   4.485076
    12  O    2.440583   3.490617   4.900392   4.484874   3.707498
    13  H    2.424325   2.952498   2.642853   2.734741   2.138865
    14  H    2.952491   2.424359   1.082422   2.138860   2.734726
    15  H    1.082051   2.212695   3.733278   4.051142   3.549986
    16  H    2.212702   1.082051   2.512378   3.550001   4.051185
    17  Cl   4.153963   4.654705   4.032249   2.749538   1.746320
    18  Cl   4.654592   4.153918   2.688990   1.746318   2.749531
    19  O    2.324643   2.324636   3.661660   3.432107   3.432161
                    6          7          8          9         10
     6  C    0.000000
     7  C    2.872379   0.000000
     8  C    3.839421   2.281739   0.000000
     9  H    3.923516   4.554087   3.055241   0.000000
    10  H    1.084356   3.055193   4.554142   4.998646   0.000000
    11  O    4.900516   3.415390   1.199231   3.141823   5.681112
    12  O    3.356405   1.199233   3.415394   5.681019   3.141678
    13  H    1.082421   3.470714   4.087704   3.687015   1.838063
    14  H    2.642846   4.087660   3.470761   1.838061   3.687011
    15  H    2.512352   2.234444   3.333129   4.556147   2.712497
    16  H    3.733293   3.333135   2.234443   2.712545   4.556143
    17  Cl   2.688991   3.750747   4.616421   4.869298   2.800697
    18  Cl   4.032235   4.616209   3.750713   2.800701   4.869273
    19  O    3.661701   1.397594   1.397585   4.099235   4.099267
                   11         12         13         14         15
    11  O    0.000000
    12  O    4.481995   0.000000
    13  H    5.097082   4.101181   0.000000
    14  H    4.101282   5.097000   2.043672   0.000000
    15  H    4.470872   2.823689   2.407449   3.357788   0.000000
    16  H    2.823674   4.470894   3.357776   2.407484   2.680864
    17  Cl   5.406649   3.873448   3.669207   4.466518   4.767492
    18  Cl   3.873564   5.406342   4.466532   3.669212   5.589063
    19  O    2.275238   2.275248   4.231955   4.231944   3.315653
                   16         17         18         19
    16  H    0.000000
    17  Cl   5.589154   0.000000
    18  Cl   4.767475   3.174065   0.000000
    19  O    3.315651   3.972279   3.972110   0.000000
 Symmetry turned off by external request.
 Stoichiometry    C8H6Cl2O3
 Framework group  C1[X(C8H6Cl2O3)]
 Deg. of freedom    51
 Full point group                 C1      NOp   1
 Rotational constants (GHZ):           0.7768905           0.6274798           0.4713895
 Leave Link  202 at Thu Feb  9 09:22:36 2023, MaxMem=  1073741824 cpu:               0.0 elap:               0.0
 (Enter /public/home/zyli/senxu/soft/g16/l301.exe)
 Standard basis: CC-pVDZ (5D, 7F)
   220 basis functions,   597 primitive gaussians,   233 cartesian basis functions
    56 alpha electrons       56 beta electrons
       nuclear repulsion energy      1022.9272474085 Hartrees.
 IExCor=    0 DFT=F Ex=HF Corr=None ExCW=0 ScaHFX=  1.000000
 ScaDFX=  1.000000  1.000000  1.000000  1.000000 ScalE2=  1.000000  1.000000
 IRadAn=      5 IRanWt=     -1 IRanGd=            0 ICorTp=0 IEmpDi=  4
 NAtoms=   19 NActive=   19 NUniq=   19 SFac= 1.00D+00 NAtFMM=   60 NAOKFM=F Big=F
 Integral buffers will be    131072 words long.
 Raffenetti 1 integral format.
 Two-electron integral symmetry is turned off.
 Leave Link  301 at Thu Feb  9 09:22:36 2023, MaxMem=  1073741824 cpu:               0.3 elap:               0.1
 (Enter /public/home/zyli/senxu/soft/g16/l302.exe)
 NPDir=0 NMtPBC=     1 NCelOv=     1 NCel=       1 NClECP=     1 NCelD=      1
         NCelK=      1 NCelE2=     1 NClLst=     1 CellRange=     0.0.
 One-electron integrals computed using PRISM.
 NBasis=   220 RedAO= T EigKep=  9.36D-04  NBF=   220
 NBsUse=   220 1.00D-06 EigRej= -1.00D+00 NBFU=   220
 Leave Link  302 at Thu Feb  9 09:22:36 2023, MaxMem=  1073741824 cpu:               1.5 elap:               0.2
 (Enter /public/home/zyli/senxu/soft/g16/l303.exe)
 DipDrv:  MaxL=1.
 Leave Link  303 at Thu Feb  9 09:22:36 2023, MaxMem=  1073741824 cpu:               0.5 elap:               0.1
 (Enter /public/home/zyli/senxu/soft/g16/l401.exe)
 Initial guess from the checkpoint file:  "is_cc-pvdz_nlmo.chk"
 B after Tr=     0.000000    0.000000    0.000000
         Rot=    1.000000    0.000000    0.000000    0.000000 Ang=   0.00 deg.
 Guess basis will be translated and rotated to current coordinates.
 JPrj=2 DoOrth=T DoCkMO=T.
 Leave Link  401 at Thu Feb  9 09:22:36 2023, MaxMem=  1073741824 cpu:               1.3 elap:               0.2
 (Enter /public/home/zyli/senxu/soft/g16/l601.exe)
 Copying SCF densities to generalized density rwf, IOpCl= 0 IROHF=0.

 **********************************************************************

            Population analysis using the SCF Density.

 **********************************************************************

 Alpha  occ. eigenvalues -- -104.85449-104.85449 -20.63590 -20.57526 -20.57526
 Alpha  occ. eigenvalues --  -11.41609 -11.41607 -11.34918 -11.34817 -11.30809
 Alpha  occ. eigenvalues --  -11.30684 -11.30666 -11.30665 -10.58121 -10.58118
 Alpha  occ. eigenvalues --   -8.04881  -8.04881  -8.04519  -8.04519  -8.04510
 Alpha  occ. eigenvalues --   -8.04510  -1.50185  -1.42557  -1.37990  -1.22652
 Alpha  occ. eigenvalues --   -1.15297  -1.13762  -1.07210  -1.01819  -0.94898
 Alpha  occ. eigenvalues --   -0.90177  -0.84860  -0.81114  -0.74585  -0.71714
 Alpha  occ. eigenvalues --   -0.70772  -0.68681  -0.67543  -0.67355  -0.64478
 Alpha  occ. eigenvalues --   -0.63175  -0.61957  -0.59506  -0.58385  -0.56938
 Alpha  occ. eigenvalues --   -0.56253  -0.56233  -0.49771  -0.49366  -0.48853
 Alpha  occ. eigenvalues --   -0.48632  -0.46789  -0.45972  -0.45706  -0.36297
 Alpha  occ. eigenvalues --   -0.35618
 Alpha virt. eigenvalues --    0.04081   0.04931   0.14337   0.15535   0.16253
 Alpha virt. eigenvalues --    0.19297   0.19401   0.21876   0.22301   0.24193
 Alpha virt. eigenvalues --    0.25107   0.27607   0.31975   0.33276   0.34949
 Alpha virt. eigenvalues --    0.36532   0.38243   0.40222   0.44519   0.46060
 Alpha virt. eigenvalues --    0.48045   0.53469   0.54492   0.55936   0.59187
 Alpha virt. eigenvalues --    0.61397   0.61922   0.62375   0.64711   0.65519
 Alpha virt. eigenvalues --    0.65983   0.66408   0.66863   0.69525   0.69868
 Alpha virt. eigenvalues --    0.70810   0.72109   0.73213   0.75816   0.76139
 Alpha virt. eigenvalues --    0.78031   0.78603   0.79203   0.80645   0.81659
 Alpha virt. eigenvalues --    0.83354   0.83625   0.83674   0.86264   0.87439
 Alpha virt. eigenvalues --    0.89089   0.90145   0.91009   0.91230   0.91881
 Alpha virt. eigenvalues --    0.92974   0.94938   0.95561   0.96261   0.97594
 Alpha virt. eigenvalues --    0.98134   0.99748   1.00554   1.06385   1.06731
 Alpha virt. eigenvalues --    1.07832   1.09281   1.10967   1.11759   1.16579
 Alpha virt. eigenvalues --    1.17006   1.19659   1.20310   1.21713   1.23846
 Alpha virt. eigenvalues --    1.25093   1.25845   1.27153   1.30489   1.33002
 Alpha virt. eigenvalues --    1.34587   1.35509   1.38659   1.39432   1.39599
 Alpha virt. eigenvalues --    1.40665   1.41127   1.45608   1.46652   1.47055
 Alpha virt. eigenvalues --    1.49937   1.51045   1.51987   1.59117   1.60866
 Alpha virt. eigenvalues --    1.62539   1.68433   1.69306   1.71756   1.72265
 Alpha virt. eigenvalues --    1.75201   1.77691   1.78589   1.80230   1.80594
 Alpha virt. eigenvalues --    1.83753   1.86659   1.86749   1.87887   1.91229
 Alpha virt. eigenvalues --    1.91421   1.93959   1.95415   1.97063   1.97159
 Alpha virt. eigenvalues --    2.00662   2.02130   2.06784   2.07230   2.10100
 Alpha virt. eigenvalues --    2.12109   2.14443   2.16704   2.20193   2.21020
 Alpha virt. eigenvalues --    2.24204   2.26412   2.28904   2.28949   2.34958
 Alpha virt. eigenvalues --    2.36011   2.39301   2.40986   2.44450   2.44761
 Alpha virt. eigenvalues --    2.45531   2.50263   2.54722   2.60740   2.62375
 Alpha virt. eigenvalues --    2.67620   2.71789   2.75707   2.80808   2.85245
 Alpha virt. eigenvalues --    2.94172   2.95011   2.95286   2.97328   3.01393
 Alpha virt. eigenvalues --    3.05671   3.13226   3.17247   3.26078   3.37980
 Alpha virt. eigenvalues --    3.41126   3.50023   3.51538   3.58711   3.59969
 Alpha virt. eigenvalues --    3.80819   3.89000   3.90930   3.92953
     Molecular Orbital Coefficients:
                           1         2         3         4         5
                           O         O         O         O         O
     Eigenvalues --  -104.85449-104.85449 -20.63590 -20.57526 -20.57526
   1 1   C  1S         -0.00001   0.00000  -0.00006  -0.00005  -0.00009
   2        2S         -0.00001   0.00001  -0.00013  -0.00008  -0.00016
   3        3S          0.00009   0.00001  -0.00026   0.00271   0.00010
   4        4PX        -0.00000   0.00000  -0.00003  -0.00006  -0.00003
   5        4PY         0.00000   0.00000   0.00005  -0.00001  -0.00003
   6        4PZ        -0.00000  -0.00000   0.00016  -0.00002   0.00007
   7        5PX         0.00003  -0.00001  -0.00003   0.00037   0.00015
   8        5PY         0.00006  -0.00002  -0.00054   0.00171   0.00044
   9        5PZ         0.00004  -0.00002   0.00053  -0.00032  -0.00055
  10        6D 0       -0.00000   0.00000  -0.00007   0.00013   0.00010
  11        6D+1        0.00000  -0.00000   0.00000  -0.00008  -0.00002
  12        6D-1       -0.00000   0.00000  -0.00001  -0.00039  -0.00014
  13        6D+2       -0.00000  -0.00000  -0.00006   0.00003  -0.00002
  14        6D-2        0.00000   0.00000   0.00002   0.00005  -0.00002
  15 2   C  1S          0.00001   0.00000  -0.00006   0.00002  -0.00010
  16        2S          0.00001   0.00000  -0.00013   0.00003  -0.00018
  17        3S         -0.00009   0.00002  -0.00026  -0.00254   0.00095
  18        4PX         0.00000   0.00000  -0.00003   0.00005  -0.00005
  19        4PY         0.00000  -0.00000  -0.00005   0.00000   0.00003
  20        4PZ         0.00000  -0.00000   0.00016   0.00004   0.00006
  21        5PX        -0.00003  -0.00001  -0.00003  -0.00030   0.00026
  22        5PY         0.00006   0.00001   0.00054   0.00148  -0.00095
  23        5PZ        -0.00004  -0.00002   0.00053   0.00013  -0.00062
  24        6D 0        0.00000   0.00000  -0.00007  -0.00009   0.00013
  25        6D+1       -0.00000  -0.00000   0.00000   0.00007  -0.00004
  26        6D-1       -0.00000  -0.00000   0.00001  -0.00033   0.00025
  27        6D+2        0.00000  -0.00000  -0.00006  -0.00004  -0.00001
  28        6D-2       -0.00000  -0.00000  -0.00002   0.00006   0.00001
  29 3   C  1S         -0.00001  -0.00002   0.00002  -0.00007   0.00007
  30        2S         -0.00002  -0.00003   0.00004  -0.00012   0.00014
  31        3S          0.00033   0.00017   0.00018   0.00076  -0.00052
  32        4PX         0.00000  -0.00000  -0.00000   0.00002  -0.00002
  33        4PY         0.00000   0.00000  -0.00001   0.00000  -0.00001
  34        4PZ        -0.00000   0.00000  -0.00001   0.00001  -0.00003
  35        5PX         0.00004   0.00006   0.00017   0.00014  -0.00010
  36        5PY        -0.00024  -0.00012  -0.00013  -0.00034   0.00028
  37        5PZ        -0.00001  -0.00006  -0.00008  -0.00041   0.00038
  38        6D 0       -0.00002  -0.00001   0.00002   0.00000  -0.00001
  39        6D+1        0.00001  -0.00001  -0.00002   0.00000  -0.00001
  40        6D-1        0.00001   0.00001  -0.00001   0.00001  -0.00002
  41        6D+2       -0.00002  -0.00002  -0.00003  -0.00001   0.00002
  42        6D-2       -0.00001  -0.00001   0.00002  -0.00001  -0.00001
  43 4   C  1S          0.00002  -0.00001   0.00009   0.00002  -0.00002
  44        2S          0.00003  -0.00002   0.00016   0.00003  -0.00003
  45        3S         -0.00045   0.00004  -0.00054  -0.00080   0.00053
  46        4PX        -0.00001  -0.00001  -0.00002   0.00001  -0.00003
  47        4PY        -0.00001  -0.00001   0.00001   0.00000   0.00002
  48        4PZ         0.00001   0.00001  -0.00002   0.00001  -0.00000
  49        5PX         0.00038   0.00013   0.00014   0.00046  -0.00021
  50        5PY         0.00042   0.00003  -0.00017  -0.00008   0.00006
  51        5PZ        -0.00052  -0.00016   0.00001  -0.00046   0.00017
  52        6D 0        0.00000  -0.00000   0.00000   0.00002  -0.00001
  53        6D+1        0.00001   0.00001   0.00000   0.00001  -0.00001
  54        6D-1        0.00002  -0.00001   0.00000   0.00001  -0.00001
  55        6D+2        0.00001  -0.00001  -0.00001   0.00000  -0.00000
  56        6D-2       -0.00002   0.00001   0.00001   0.00001  -0.00001
  57 5   C  1S         -0.00002  -0.00001   0.00009  -0.00002  -0.00001
  58        2S         -0.00003  -0.00002   0.00016  -0.00004  -0.00002
  59        3S          0.00045  -0.00002  -0.00054   0.00092   0.00025
  60        4PX         0.00001  -0.00001  -0.00002  -0.00002  -0.00002
  61        4PY        -0.00000   0.00001  -0.00001  -0.00000  -0.00002
  62        4PZ        -0.00001   0.00001  -0.00002  -0.00001   0.00000
  63        5PX        -0.00036   0.00017   0.00014  -0.00050  -0.00005
  64        5PY         0.00041  -0.00009   0.00017  -0.00010  -0.00003
  65        5PZ         0.00049  -0.00023   0.00001   0.00049   0.00002
  66        6D 0       -0.00000  -0.00000   0.00000  -0.00002  -0.00000
  67        6D+1       -0.00001   0.00001   0.00000  -0.00001  -0.00001
  68        6D-1        0.00002   0.00000  -0.00000   0.00001   0.00000
  69        6D+2       -0.00001  -0.00001  -0.00001  -0.00000   0.00000
  70        6D-2       -0.00002  -0.00000  -0.00001   0.00002   0.00000
  71 6   C  1S          0.00001  -0.00002   0.00002   0.00009   0.00005
  72        2S          0.00002  -0.00003   0.00004   0.00016   0.00009
  73        3S         -0.00030   0.00021   0.00018  -0.00089  -0.00026
  74        4PX        -0.00000  -0.00000  -0.00000  -0.00003  -0.00001
  75        4PY         0.00000  -0.00000   0.00001   0.00001   0.00001
  76        4PZ         0.00000   0.00000  -0.00001  -0.00002  -0.00002
  77        5PX        -0.00003   0.00006   0.00017  -0.00016  -0.00005
  78        5PY        -0.00023   0.00015   0.00013  -0.00041  -0.00016
  79        5PZ         0.00001  -0.00006  -0.00008   0.00051   0.00023
  80        6D 0        0.00001  -0.00001   0.00002  -0.00000  -0.00001
  81        6D+1       -0.00001  -0.00001  -0.00002  -0.00000  -0.00001
  82        6D-1        0.00000  -0.00001   0.00001   0.00002   0.00002
  83        6D+2        0.00002  -0.00002  -0.00003   0.00001   0.00002
  84        6D-2       -0.00001   0.00001  -0.00002  -0.00000   0.00001
  85 7   C  1S         -0.00000   0.00000   0.00008   0.00034   0.00008
  86        2S         -0.00000   0.00001   0.00017   0.00050   0.00005
  87        3S          0.00001  -0.00003   0.00212   0.00069   0.00117
  88        4PX         0.00000  -0.00000  -0.00000  -0.00001  -0.00002
  89        4PY        -0.00000  -0.00000   0.00028   0.00016   0.00001
  90        4PZ         0.00000   0.00000  -0.00022   0.00001   0.00003
  91        5PX        -0.00001   0.00001   0.00026  -0.00018  -0.00012
  92        5PY        -0.00003   0.00000   0.00166  -0.00347  -0.00157
  93        5PZ         0.00003  -0.00003  -0.00035  -0.00093  -0.00073
  94        6D 0       -0.00000  -0.00000   0.00004   0.00024   0.00013
  95        6D+1       -0.00000  -0.00000   0.00002  -0.00005  -0.00003
  96        6D-1        0.00000  -0.00000   0.00021  -0.00044  -0.00025
  97        6D+2        0.00000  -0.00000  -0.00009   0.00046   0.00022
  98        6D-2       -0.00000   0.00000   0.00001  -0.00006  -0.00006
  99 8   C  1S          0.00000   0.00000   0.00008  -0.00030   0.00018
 100        2S          0.00000   0.00001   0.00017  -0.00046   0.00021
 101        3S         -0.00001  -0.00003   0.00212  -0.00029   0.00133
 102        4PX        -0.00000  -0.00000  -0.00000   0.00001  -0.00002
 103        4PY        -0.00000   0.00000  -0.00028   0.00014  -0.00006
 104        4PZ        -0.00000   0.00000  -0.00022  -0.00000   0.00003
 105        5PX         0.00001   0.00001   0.00027   0.00013  -0.00017
 106        5PY        -0.00003  -0.00000  -0.00166  -0.00280   0.00258
 107        5PZ        -0.00004  -0.00003  -0.00035   0.00065  -0.00099
 108        6D 0        0.00000  -0.00000   0.00004  -0.00019   0.00020
 109        6D+1        0.00000  -0.00000   0.00002   0.00004  -0.00004
 110        6D-1        0.00000   0.00000  -0.00021  -0.00034   0.00037
 111        6D+2       -0.00000  -0.00000  -0.00009  -0.00036   0.00036
 112        6D-2       -0.00000  -0.00000  -0.00001  -0.00004   0.00007
 113 9   H  1S         -0.00001  -0.00002  -0.00000  -0.00004   0.00004
 114        2S          0.00008   0.00006   0.00012   0.00013  -0.00014
 115        3PX        -0.00000  -0.00000  -0.00002  -0.00001   0.00001
 116        3PY         0.00001   0.00000  -0.00001   0.00000  -0.00000
 117        3PZ         0.00000   0.00000  -0.00001   0.00002  -0.00003
 118 10  H  1S          0.00001  -0.00002  -0.00000   0.00005   0.00002
 119        2S         -0.00008   0.00007   0.00012  -0.00017  -0.00009
 120        3PX         0.00000  -0.00000  -0.00002   0.00001   0.00001
 121        3PY         0.00001  -0.00001   0.00001   0.00000   0.00000
 122        3PZ        -0.00000   0.00000  -0.00001  -0.00003  -0.00002
 123 11  O  1S          0.00000   0.00000  -0.00031  -0.58646   0.81174
 124        2S          0.00000   0.00000  -0.00012  -0.00130   0.00166
 125        3S          0.00000  -0.00000   0.00020   0.00425  -0.00548
 126        4PX         0.00000   0.00000   0.00001  -0.00008   0.00010
 127        4PY        -0.00000   0.00000   0.00005   0.00100  -0.00137
 128        4PZ        -0.00000  -0.00000  -0.00003  -0.00044   0.00059
 129        5PX        -0.00001  -0.00000  -0.00008   0.00009  -0.00011
 130        5PY         0.00000   0.00000   0.00028  -0.00086   0.00131
 131        5PZ         0.00001   0.00001   0.00026   0.00048  -0.00057
 132        6D 0        0.00000   0.00000   0.00008  -0.00003   0.00005
 133        6D+1       -0.00000  -0.00000  -0.00000  -0.00000  -0.00000
 134        6D-1       -0.00000  -0.00000  -0.00003   0.00005  -0.00005
 135        6D+2        0.00000   0.00000   0.00006   0.00015  -0.00018
 136        6D-2        0.00000   0.00000   0.00001   0.00002  -0.00002
 137 12  O  1S         -0.00000   0.00000  -0.00031   0.81179   0.58640
 138        2S         -0.00000   0.00000  -0.00012   0.00175   0.00117
 139        3S         -0.00000  -0.00000   0.00020  -0.00576  -0.00387
 140        4PX        -0.00000   0.00000   0.00001   0.00011   0.00007
 141        4PY        -0.00000  -0.00000  -0.00005   0.00137   0.00098
 142        4PZ         0.00000  -0.00000  -0.00003   0.00061   0.00042
 143        5PX         0.00001  -0.00000  -0.00008  -0.00012  -0.00007
 144        5PY         0.00000  -0.00000  -0.00028  -0.00123  -0.00098
 145        5PZ        -0.00001   0.00001   0.00026  -0.00064  -0.00039
 146        6D 0       -0.00000   0.00000   0.00008   0.00004   0.00004
 147        6D+1        0.00000  -0.00000  -0.00000  -0.00000  -0.00000
 148        6D-1       -0.00000   0.00000   0.00003   0.00006   0.00003
 149        6D+2       -0.00000   0.00000   0.00006  -0.00020  -0.00012
 150        6D-2        0.00000  -0.00000  -0.00001   0.00003   0.00002
 151 13  H  1S          0.00002  -0.00001  -0.00001   0.00002   0.00000
 152        2S          0.00002   0.00000  -0.00005  -0.00022  -0.00002
 153        3PX        -0.00000   0.00000  -0.00000   0.00001  -0.00000
 154        3PY         0.00001  -0.00001  -0.00000   0.00002   0.00003
 155        3PZ         0.00001  -0.00000   0.00003   0.00001  -0.00001
 156 14  H  1S         -0.00002  -0.00001  -0.00001  -0.00002   0.00001
 157        2S         -0.00002   0.00001  -0.00005   0.00020  -0.00009
 158        3PX         0.00000   0.00000  -0.00000  -0.00001  -0.00000
 159        3PY         0.00001   0.00001   0.00000   0.00001  -0.00003
 160        3PZ        -0.00001  -0.00000   0.00003  -0.00001  -0.00001
 161 15  H  1S         -0.00000  -0.00000  -0.00013  -0.00017   0.00004
 162        2S         -0.00000   0.00001  -0.00016   0.00024   0.00023
 163        3PX        -0.00000   0.00000  -0.00003  -0.00009  -0.00003
 164        3PY        -0.00000   0.00000   0.00003  -0.00015  -0.00005
 165        3PZ        -0.00000   0.00000  -0.00001   0.00007   0.00003
 166 16  H  1S          0.00000  -0.00000  -0.00013   0.00018  -0.00002
 167        2S          0.00000   0.00001  -0.00016  -0.00016   0.00030
 168        3PX         0.00000   0.00000  -0.00003   0.00008  -0.00005
 169        3PY        -0.00000   0.00000  -0.00003  -0.00013   0.00009
 170        3PZ         0.00000   0.00000  -0.00001  -0.00006   0.00005
 171 17  Cl 1S         -0.65983   0.75147  -0.00000  -0.00000   0.00000
 172        2S         -0.00014   0.00010  -0.00001  -0.00001   0.00000
 173        3S         -0.00015   0.00011  -0.00001  -0.00001   0.00000
 174        4S          0.00075  -0.00060   0.00010   0.00014  -0.00001
 175        5PX         0.00002  -0.00002  -0.00001  -0.00001  -0.00000
 176        5PY        -0.00002   0.00002   0.00000   0.00000  -0.00000
 177        5PZ        -0.00002   0.00003   0.00000  -0.00000  -0.00000
 178        6PX        -0.00000  -0.00000  -0.00002  -0.00003  -0.00001
 179        6PY        -0.00001  -0.00001   0.00001   0.00001  -0.00001
 180        6PZ         0.00000   0.00000   0.00001  -0.00001  -0.00001
 181        7PX        -0.00011   0.00008  -0.00002   0.00004   0.00003
 182        7PY         0.00012  -0.00008   0.00000   0.00004   0.00001
 183        7PZ         0.00018  -0.00013   0.00005   0.00008   0.00002
 184        8D 0        0.00001  -0.00001   0.00000   0.00000   0.00000
 185        8D+1       -0.00002   0.00001  -0.00002  -0.00000  -0.00000
 186        8D-1        0.00001  -0.00002   0.00000   0.00000  -0.00001
 187        8D+2       -0.00000   0.00000   0.00001  -0.00001  -0.00001
 188        8D-2       -0.00001   0.00001  -0.00001   0.00000   0.00000
 189 18  Cl 1S          0.75148   0.65982  -0.00000   0.00000  -0.00000
 190        2S          0.00015   0.00008  -0.00001   0.00001  -0.00000
 191        3S          0.00017   0.00009  -0.00001   0.00001  -0.00000
 192        4S         -0.00083  -0.00050   0.00010  -0.00014   0.00004
 193        5PX        -0.00002  -0.00002  -0.00001   0.00001  -0.00001
 194        5PY        -0.00002  -0.00002  -0.00000   0.00000   0.00000
 195        5PZ         0.00003   0.00003   0.00000   0.00000  -0.00000
 196        6PX         0.00000  -0.00000  -0.00002   0.00002  -0.00002
 197        6PY        -0.00001   0.00001  -0.00001   0.00001   0.00000
 198        6PZ        -0.00000   0.00000   0.00001   0.00001  -0.00001
 199        7PX         0.00012   0.00007  -0.00002  -0.00003   0.00004
 200        7PY         0.00013   0.00006  -0.00000   0.00003  -0.00002
 201        7PZ        -0.00019  -0.00011   0.00005  -0.00007   0.00004
 202        8D 0       -0.00001  -0.00000   0.00000  -0.00000   0.00000
 203        8D+1        0.00002   0.00001  -0.00002  -0.00000  -0.00000
 204        8D-1        0.00001   0.00001  -0.00000   0.00000   0.00000
 205        8D+2        0.00000   0.00000   0.00001   0.00001  -0.00001
 206        8D-2       -0.00001  -0.00001   0.00001   0.00000  -0.00001
 207 19  O  1S          0.00000   0.00000   1.00146   0.00004   0.00026
 208        2S          0.00000   0.00000   0.00219  -0.00003  -0.00020
 209        3S         -0.00000  -0.00002  -0.00726   0.00010   0.00062
 210        4PX         0.00000   0.00000  -0.00021   0.00000   0.00001
 211        4PY         0.00000  -0.00000  -0.00000   0.00007  -0.00001
 212        4PZ        -0.00000  -0.00000   0.00151  -0.00001  -0.00005
 213        5PX        -0.00000  -0.00000   0.00022  -0.00000  -0.00000
 214        5PY        -0.00003   0.00000   0.00000   0.00010  -0.00002
 215        5PZ         0.00000   0.00001  -0.00195   0.00009   0.00056
 216        6D 0        0.00000   0.00000  -0.00001   0.00003   0.00016
 217        6D+1       -0.00000  -0.00000   0.00002  -0.00000  -0.00001
 218        6D-1       -0.00000   0.00000   0.00000  -0.00001   0.00000
 219        6D+2        0.00000   0.00000   0.00012   0.00001   0.00009
 220        6D-2        0.00000  -0.00000   0.00000  -0.00002   0.00000
                           6         7         8         9        10
                           O         O         O         O         O
     Eigenvalues --   -11.41609 -11.41607 -11.34918 -11.34817 -11.30809
   1 1   C  1S          0.00236   0.00220  -0.00019  -0.00003   0.70847
   2        2S          0.00003   0.00003  -0.00013   0.00002   0.00359
   3        3S          0.00301   0.00072  -0.00059   0.00124  -0.00666
   4        4PX         0.00008   0.00004  -0.00008   0.00000   0.00018
   5        4PY        -0.00001   0.00001   0.00003  -0.00002   0.00004
   6        4PZ        -0.00008  -0.00004   0.00008  -0.00010  -0.00012
   7        5PX        -0.00038  -0.00004   0.00006   0.00017  -0.00082
   8        5PY        -0.00054  -0.00021   0.00004   0.00024   0.00047
   9        5PZ        -0.00169  -0.00022   0.00008   0.00001   0.00123
  10        6D 0       -0.00022  -0.00022  -0.00006   0.00004   0.00010
  11        6D+1        0.00004   0.00002   0.00005  -0.00002  -0.00015
  12        6D-1        0.00022   0.00002   0.00007   0.00002  -0.00012
  13        6D+2        0.00008   0.00003   0.00003  -0.00004  -0.00010
  14        6D-2       -0.00005   0.00001  -0.00000  -0.00004   0.00017
  15 2   C  1S         -0.00220   0.00235  -0.00019   0.00003   0.70896
  16        2S         -0.00002   0.00003  -0.00013  -0.00002   0.00359
  17        3S         -0.00296   0.00092  -0.00059  -0.00124  -0.00667
  18        4PX        -0.00007   0.00005  -0.00008  -0.00000   0.00018
  19        4PY        -0.00001  -0.00001  -0.00003  -0.00002  -0.00004
  20        4PZ         0.00007  -0.00004   0.00008   0.00010  -0.00012
  21        5PX         0.00038  -0.00007   0.00006  -0.00017  -0.00082
  22        5PY        -0.00052   0.00025  -0.00004   0.00024  -0.00047
  23        5PZ         0.00167  -0.00033   0.00008  -0.00001   0.00123
  24        6D 0        0.00021  -0.00024  -0.00006  -0.00004   0.00010
  25        6D+1       -0.00004   0.00002   0.00005   0.00002  -0.00015
  26        6D-1        0.00022  -0.00004  -0.00007   0.00002   0.00012
  27        6D+2       -0.00008   0.00004   0.00003   0.00004  -0.00010
  28        6D-2       -0.00005  -0.00000   0.00000  -0.00004  -0.00017
  29 3   C  1S          0.00015  -0.00008   0.01026   0.01073   0.00911
  30        2S          0.00025  -0.00014  -0.00017  -0.00005  -0.00046
  31        3S         -0.00025  -0.00005   0.00260   0.00139   0.00128
  32        4PX        -0.00000   0.00001  -0.00000  -0.00003  -0.00003
  33        4PY        -0.00004   0.00001  -0.00006  -0.00003   0.00003
  34        4PZ        -0.00007   0.00006  -0.00010  -0.00007  -0.00000
  35        5PX        -0.00000  -0.00000   0.00096   0.00012  -0.00067
  36        5PY        -0.00005   0.00014  -0.00072  -0.00114  -0.00067
  37        5PZ         0.00040  -0.00036  -0.00095  -0.00028  -0.00028
  38        6D 0        0.00001  -0.00002  -0.00006  -0.00003  -0.00007
  39        6D+1       -0.00004   0.00005   0.00004   0.00024   0.00008
  40        6D-1       -0.00002   0.00002   0.00011   0.00010   0.00007
  41        6D+2       -0.00002   0.00004  -0.00006  -0.00003   0.00015
  42        6D-2        0.00002  -0.00003  -0.00006  -0.00002   0.00012
  43 4   C  1S          0.00024  -0.00021   0.70814   0.70905  -0.00009
  44        2S          0.00037  -0.00028   0.00276   0.00336  -0.00019
  45        3S         -0.00154   0.00037  -0.00639  -0.01174  -0.00015
  46        4PX        -0.00008   0.00010  -0.00001   0.00000   0.00012
  47        4PY         0.00005   0.00003   0.00008   0.00004   0.00004
  48        4PZ        -0.00003   0.00004  -0.00043  -0.00043  -0.00000
  49        5PX         0.00031  -0.00021   0.00081   0.00095  -0.00002
  50        5PY         0.00067  -0.00009  -0.00115   0.00332  -0.00005
  51        5PZ         0.00035  -0.00008  -0.00021   0.00021  -0.00006
  52        6D 0        0.00002  -0.00001  -0.00003  -0.00010  -0.00005
  53        6D+1        0.00003  -0.00002   0.00007  -0.00012   0.00002
  54        6D-1       -0.00005  -0.00000   0.00008   0.00024   0.00006
  55        6D+2        0.00003   0.00000  -0.00006  -0.00026   0.00001
  56        6D-2       -0.00005  -0.00002  -0.00002  -0.00028  -0.00002
  57 5   C  1S         -0.00026  -0.00020   0.70855  -0.70864  -0.00009
  58        2S         -0.00039  -0.00026   0.00276  -0.00336  -0.00019
  59        3S          0.00156   0.00026  -0.00639   0.01174  -0.00015
  60        4PX         0.00008   0.00010  -0.00001  -0.00000   0.00012
  61        4PY         0.00005  -0.00004  -0.00008   0.00004  -0.00004
  62        4PZ         0.00004   0.00004  -0.00043   0.00043  -0.00000
  63        5PX        -0.00033  -0.00019   0.00081  -0.00095  -0.00002
  64        5PY         0.00067   0.00004   0.00115   0.00332   0.00005
  65        5PZ        -0.00035  -0.00006  -0.00021  -0.00021  -0.00006
  66        6D 0       -0.00002  -0.00001  -0.00003   0.00010  -0.00005
  67        6D+1       -0.00004  -0.00002   0.00007   0.00012   0.00002
  68        6D-1       -0.00005   0.00001  -0.00008   0.00024  -0.00006
  69        6D+2       -0.00003   0.00000  -0.00006   0.00026   0.00001
  70        6D-2       -0.00005   0.00002   0.00002  -0.00028   0.00002
  71 6   C  1S         -0.00016  -0.00007   0.01026  -0.01072   0.00911
  72        2S         -0.00026  -0.00013  -0.00017   0.00005  -0.00045
  73        3S          0.00025  -0.00006   0.00260  -0.00138   0.00128
  74        4PX         0.00000   0.00001  -0.00000   0.00003  -0.00003
  75        4PY        -0.00005  -0.00001   0.00006  -0.00003  -0.00003
  76        4PZ         0.00007   0.00006  -0.00010   0.00007  -0.00000
  77        5PX         0.00000  -0.00000   0.00096  -0.00012  -0.00067
  78        5PY        -0.00006  -0.00014   0.00073  -0.00114   0.00067
  79        5PZ        -0.00042  -0.00034  -0.00095   0.00028  -0.00028
  80        6D 0       -0.00001  -0.00002  -0.00006   0.00003  -0.00007
  81        6D+1        0.00005   0.00004   0.00004  -0.00024   0.00008
  82        6D-1       -0.00002  -0.00002  -0.00011   0.00010  -0.00007
  83        6D+2        0.00003   0.00004  -0.00006   0.00003   0.00015
  84        6D-2        0.00002   0.00003   0.00006  -0.00002  -0.00012
  85 7   C  1S          0.73211   0.68392  -0.00010   0.00019  -0.00247
  86        2S          0.00292   0.00211  -0.00031   0.00042  -0.00015
  87        3S         -0.00587  -0.00187   0.00120  -0.00199   0.00280
  88        4PX         0.00012   0.00010  -0.00013   0.00011   0.00005
  89        4PY         0.00039   0.00039  -0.00002   0.00006   0.00005
  90        4PZ        -0.00038  -0.00042  -0.00010   0.00008   0.00003
  91        5PX        -0.00012  -0.00028   0.00059  -0.00064   0.00005
  92        5PY        -0.00255  -0.00013   0.00068  -0.00085   0.00061
  93        5PZ        -0.00301  -0.00091   0.00015   0.00001   0.00129
  94        6D 0        0.00002  -0.00012   0.00004  -0.00007  -0.00019
  95        6D+1       -0.00000   0.00004  -0.00004  -0.00001   0.00005
  96        6D-1        0.00024   0.00022  -0.00009   0.00001  -0.00012
  97        6D+2       -0.00048  -0.00077  -0.00007   0.00012  -0.00003
  98        6D-2        0.00013   0.00012   0.00001  -0.00003   0.00003
  99 8   C  1S         -0.68430   0.73175  -0.00010  -0.00019  -0.00247
 100        2S         -0.00277   0.00230  -0.00031  -0.00042  -0.00015
 101        3S          0.00573  -0.00226   0.00119   0.00199   0.00280
 102        4PX        -0.00011   0.00011  -0.00013  -0.00011   0.00005
 103        4PY         0.00036  -0.00042   0.00002   0.00006  -0.00005
 104        4PZ         0.00035  -0.00044  -0.00010  -0.00008   0.00003
 105        5PX         0.00010  -0.00028   0.00059   0.00064   0.00005
 106        5PY        -0.00253   0.00030  -0.00068  -0.00085  -0.00061
 107        5PZ         0.00294  -0.00111   0.00015  -0.00001   0.00129
 108        6D 0       -0.00003  -0.00012   0.00004   0.00007  -0.00019
 109        6D+1        0.00000   0.00004  -0.00004   0.00001   0.00005
 110        6D-1        0.00023  -0.00024   0.00009   0.00001   0.00012
 111        6D+2        0.00042  -0.00080  -0.00007  -0.00012  -0.00003
 112        6D-2        0.00012  -0.00013  -0.00001  -0.00003  -0.00003
 113 9   H  1S          0.00005  -0.00006  -0.00010   0.00006  -0.00000
 114        2S          0.00007  -0.00000   0.00026   0.00032   0.00024
 115        3PX        -0.00002   0.00001   0.00002   0.00003   0.00004
 116        3PY        -0.00000  -0.00002  -0.00003  -0.00003  -0.00005
 117        3PZ        -0.00004   0.00004  -0.00005  -0.00003   0.00002
 118 10  H  1S         -0.00006  -0.00006  -0.00010  -0.00006  -0.00000
 119        2S         -0.00007   0.00000   0.00026  -0.00032   0.00024
 120        3PX         0.00002   0.00000   0.00002  -0.00003   0.00004
 121        3PY        -0.00000   0.00002   0.00003  -0.00003   0.00005
 122        3PZ         0.00004   0.00004  -0.00005   0.00003   0.00002
 123 11  O  1S          0.00005  -0.00017   0.00001   0.00003  -0.00004
 124        2S         -0.00049   0.00031   0.00001   0.00006  -0.00008
 125        3S          0.00170  -0.00100   0.00005  -0.00023   0.00012
 126        4PX        -0.00002   0.00001   0.00005   0.00004   0.00001
 127        4PY         0.00027  -0.00031  -0.00002   0.00000   0.00000
 128        4PZ        -0.00010   0.00008  -0.00000  -0.00001  -0.00003
 129        5PX         0.00005   0.00003  -0.00024  -0.00024   0.00001
 130        5PY        -0.00056   0.00081   0.00010   0.00022  -0.00001
 131        5PZ        -0.00019  -0.00003   0.00000  -0.00002  -0.00016
 132        6D 0        0.00006  -0.00008  -0.00000   0.00001  -0.00001
 133        6D+1       -0.00002   0.00002  -0.00001  -0.00001  -0.00000
 134        6D-1        0.00021  -0.00015   0.00000   0.00001   0.00004
 135        6D+2        0.00011  -0.00008   0.00001   0.00002  -0.00003
 136        6D-2        0.00002  -0.00002   0.00002   0.00002  -0.00002
 137 12  O  1S         -0.00006  -0.00016   0.00001  -0.00003  -0.00004
 138        2S          0.00051   0.00027   0.00001  -0.00006  -0.00008
 139        3S         -0.00176  -0.00088   0.00005   0.00023   0.00012
 140        4PX         0.00002   0.00001   0.00005  -0.00004   0.00001
 141        4PY         0.00029   0.00029   0.00002   0.00000  -0.00000
 142        4PZ         0.00010   0.00007  -0.00000   0.00001  -0.00003
 143        5PX        -0.00005   0.00003  -0.00024   0.00024   0.00001
 144        5PY        -0.00061  -0.00077  -0.00010   0.00022   0.00001
 145        5PZ         0.00019  -0.00005   0.00000   0.00002  -0.00016
 146        6D 0       -0.00006  -0.00007  -0.00000  -0.00001  -0.00001
 147        6D+1        0.00002   0.00002  -0.00001   0.00001  -0.00000
 148        6D-1        0.00022   0.00014  -0.00000   0.00001  -0.00004
 149        6D+2       -0.00012  -0.00008   0.00001  -0.00002  -0.00003
 150        6D-2        0.00002   0.00002  -0.00002   0.00002   0.00002
 151 13  H  1S          0.00005   0.00009  -0.00001   0.00004  -0.00016
 152        2S          0.00039   0.00020   0.00015  -0.00008  -0.00011
 153        3PX        -0.00001   0.00001  -0.00002  -0.00000  -0.00000
 154        3PY        -0.00002  -0.00001  -0.00005   0.00001  -0.00007
 155        3PZ        -0.00004  -0.00003  -0.00007   0.00011  -0.00002
 156 14  H  1S         -0.00004   0.00010  -0.00001  -0.00004  -0.00016
 157        2S         -0.00038   0.00022   0.00015   0.00008  -0.00011
 158        3PX         0.00001   0.00001  -0.00002   0.00000  -0.00000
 159        3PY        -0.00002   0.00001   0.00005   0.00001   0.00007
 160        3PZ         0.00004  -0.00003  -0.00007  -0.00011  -0.00002
 161 15  H  1S          0.00007   0.00000   0.00010  -0.00007  -0.00010
 162        2S          0.00004   0.00007   0.00024  -0.00011   0.00064
 163        3PX         0.00013   0.00005   0.00005  -0.00002  -0.00005
 164        3PY         0.00007   0.00005   0.00004  -0.00003  -0.00020
 165        3PZ        -0.00001  -0.00003  -0.00006   0.00001   0.00018
 166 16  H  1S         -0.00007   0.00001   0.00010   0.00007  -0.00010
 167        2S         -0.00003   0.00007   0.00024   0.00011   0.00064
 168        3PX        -0.00012   0.00006   0.00005   0.00002  -0.00005
 169        3PY         0.00007  -0.00006  -0.00004  -0.00003   0.00020
 170        3PZ         0.00001  -0.00003  -0.00006  -0.00001   0.00018
 171 17  Cl 1S          0.00001   0.00001  -0.00002  -0.00000   0.00000
 172        2S          0.00008   0.00005  -0.00004  -0.00017   0.00003
 173        3S          0.00008   0.00005  -0.00017  -0.00009   0.00003
 174        4S         -0.00027  -0.00013   0.00110  -0.00056  -0.00002
 175        5PX         0.00000   0.00000  -0.00002   0.00003  -0.00001
 176        5PY        -0.00001  -0.00000   0.00001  -0.00004   0.00000
 177        5PZ        -0.00001   0.00000   0.00003  -0.00005   0.00000
 178        6PX         0.00001   0.00001  -0.00007   0.00012  -0.00005
 179        6PY        -0.00003  -0.00000   0.00003  -0.00014   0.00002
 180        6PZ        -0.00002   0.00000   0.00010  -0.00015   0.00000
 181        7PX         0.00015   0.00007  -0.00033   0.00017   0.00009
 182        7PY        -0.00009  -0.00003   0.00021  -0.00032  -0.00002
 183        7PZ        -0.00004  -0.00004   0.00033  -0.00004   0.00003
 184        8D 0        0.00002   0.00001  -0.00006   0.00010   0.00002
 185        8D+1        0.00004   0.00003   0.00009  -0.00011  -0.00000
 186        8D-1       -0.00003   0.00000  -0.00010   0.00004   0.00001
 187        8D+2       -0.00001  -0.00001   0.00004  -0.00005  -0.00001
 188        8D-2        0.00003   0.00001   0.00002   0.00001  -0.00000
 189 18  Cl 1S         -0.00001   0.00001  -0.00002   0.00000   0.00000
 190        2S         -0.00007   0.00005  -0.00004   0.00017   0.00003
 191        3S         -0.00008   0.00006  -0.00017   0.00009   0.00003
 192        4S          0.00026  -0.00015   0.00110   0.00056  -0.00002
 193        5PX        -0.00000   0.00000  -0.00002  -0.00003  -0.00001
 194        5PY        -0.00001   0.00000  -0.00001  -0.00004  -0.00000
 195        5PZ         0.00001   0.00000   0.00003   0.00005   0.00000
 196        6PX        -0.00001   0.00001  -0.00007  -0.00012  -0.00005
 197        6PY        -0.00003   0.00000  -0.00003  -0.00014  -0.00002
 198        6PZ         0.00002   0.00000   0.00010   0.00015   0.00000
 199        7PX        -0.00015   0.00008  -0.00033  -0.00017   0.00009
 200        7PY        -0.00008   0.00003  -0.00021  -0.00032   0.00002
 201        7PZ         0.00003  -0.00005   0.00033   0.00004   0.00003
 202        8D 0       -0.00002   0.00001  -0.00006  -0.00010   0.00002
 203        8D+1       -0.00004   0.00003   0.00009   0.00011  -0.00000
 204        8D-1       -0.00003   0.00000   0.00010   0.00004  -0.00001
 205        8D+2        0.00001  -0.00001   0.00004   0.00005  -0.00001
 206        8D-2        0.00003  -0.00002  -0.00002   0.00001   0.00000
 207 19  O  1S          0.00001   0.00032   0.00020   0.00000  -0.00000
 208        2S          0.00003   0.00090   0.00037   0.00000  -0.00004
 209        3S         -0.00007  -0.00199  -0.00161  -0.00000  -0.00042
 210        4PX        -0.00000  -0.00007   0.00001  -0.00000  -0.00001
 211        4PY        -0.00038   0.00001  -0.00000   0.00004  -0.00000
 212        4PZ         0.00001   0.00018  -0.00001  -0.00000  -0.00002
 213        5PX         0.00001   0.00040  -0.00013   0.00000   0.00010
 214        5PY         0.00124  -0.00004   0.00000  -0.00080  -0.00000
 215        5PZ        -0.00004  -0.00110  -0.00047  -0.00000  -0.00026
 216        6D 0       -0.00000  -0.00015  -0.00002  -0.00000   0.00004
 217        6D+1        0.00000   0.00009  -0.00001   0.00000   0.00002
 218        6D-1        0.00026  -0.00001   0.00000  -0.00006  -0.00000
 219        6D+2        0.00001   0.00030   0.00003   0.00000  -0.00000
 220        6D-2       -0.00006   0.00000   0.00000  -0.00002   0.00000
                          11        12        13        14        15
                           O         O         O         O         O
     Eigenvalues --   -11.30684 -11.30666 -11.30665 -10.58121 -10.58118
   1 1   C  1S          0.70229  -0.10191  -0.00646  -0.00013   0.00006
   2        2S          0.00412  -0.00128  -0.00045  -0.00022   0.00012
   3        3S         -0.01331   0.00489   0.00077   0.00191   0.00015
   4        4PX         0.00024  -0.00002   0.00003  -0.00003   0.00002
   5        4PY        -0.00002   0.00004  -0.00003   0.00000   0.00003
   6        4PZ        -0.00021   0.00011   0.00005  -0.00001  -0.00002
   7        5PX        -0.00176   0.00194   0.00053   0.00069  -0.00027
   8        5PY        -0.00309   0.00101  -0.00010   0.00116  -0.00024
   9        5PZ         0.00233  -0.00012   0.00005   0.00044  -0.00017
  10        6D 0        0.00011  -0.00009  -0.00011   0.00001   0.00003
  11        6D+1       -0.00024   0.00013   0.00008   0.00003  -0.00002
  12        6D-1       -0.00040  -0.00005  -0.00002  -0.00002   0.00001
  13        6D+2       -0.00044   0.00025   0.00011  -0.00001  -0.00003
  14        6D-2        0.00015  -0.00006  -0.00010   0.00000   0.00004
  15 2   C  1S         -0.70181   0.10117  -0.01280   0.00013   0.00006
  16        2S         -0.00412   0.00125  -0.00053   0.00022   0.00012
  17        3S          0.01330  -0.00483   0.00109  -0.00191   0.00016
  18        4PX        -0.00024   0.00002   0.00003   0.00003   0.00002
  19        4PY        -0.00002   0.00004   0.00003   0.00000  -0.00003
  20        4PZ         0.00021  -0.00010   0.00005   0.00001  -0.00002
  21        5PX         0.00176  -0.00190   0.00066  -0.00069  -0.00027
  22        5PY        -0.00309   0.00101   0.00003   0.00116   0.00023
  23        5PZ        -0.00233   0.00013   0.00004  -0.00044  -0.00016
  24        6D 0       -0.00011   0.00009  -0.00011  -0.00001   0.00003
  25        6D+1        0.00024  -0.00012   0.00009  -0.00003  -0.00002
  26        6D-1       -0.00040  -0.00004   0.00002  -0.00002  -0.00001
  27        6D+2        0.00044  -0.00024   0.00012   0.00001  -0.00003
  28        6D-2        0.00015  -0.00005   0.00010   0.00000  -0.00004
  29 3   C  1S         -0.10044  -0.67682   0.73253  -0.00020  -0.00034
  30        2S          0.00008  -0.00384   0.00336  -0.00038  -0.00062
  31        3S         -0.00119   0.00948  -0.00679   0.00492   0.00375
  32        4PX         0.00010   0.00008  -0.00003   0.00004  -0.00002
  33        4PY         0.00002   0.00024  -0.00008   0.00002   0.00000
  34        4PZ         0.00005   0.00001  -0.00002  -0.00002   0.00006
  35        5PX         0.00055  -0.00027   0.00019   0.00054   0.00123
  36        5PY         0.00075  -0.00221   0.00063  -0.00384  -0.00223
  37        5PZ         0.00060  -0.00108   0.00073  -0.00036  -0.00137
  38        6D 0        0.00006  -0.00014   0.00014  -0.00023  -0.00015
  39        6D+1       -0.00007   0.00027  -0.00037   0.00012  -0.00017
  40        6D-1       -0.00008   0.00009  -0.00009   0.00008   0.00008
  41        6D+2       -0.00011   0.00030  -0.00040  -0.00035  -0.00028
  42        6D-2       -0.00010   0.00022  -0.00021  -0.00020  -0.00021
  43 4   C  1S          0.00164   0.01051  -0.01109   0.00024  -0.00024
  44        2S          0.00010   0.00002  -0.00022   0.00070  -0.00023
  45        3S          0.00040  -0.00217   0.00184  -0.00822  -0.00048
  46        4PX        -0.00003   0.00000   0.00005  -0.00006  -0.00009
  47        4PY         0.00001  -0.00001  -0.00004  -0.00006  -0.00007
  48        4PZ         0.00005   0.00001  -0.00006   0.00008   0.00015
  49        5PX        -0.00031   0.00155  -0.00065   0.00570   0.00256
  50        5PY         0.00020  -0.00157   0.00034   0.00705   0.00050
  51        5PZ         0.00015  -0.00145   0.00065  -0.00748  -0.00323
  52        6D 0        0.00001  -0.00007  -0.00003   0.00002  -0.00010
  53        6D+1       -0.00003  -0.00021   0.00016   0.00040   0.00030
  54        6D-1       -0.00002   0.00005  -0.00007   0.00051   0.00002
  55        6D+2       -0.00003  -0.00021   0.00003   0.00018  -0.00012
  56        6D-2       -0.00005  -0.00006   0.00012  -0.00041   0.00001
  57 5   C  1S         -0.00165  -0.01125  -0.01033  -0.00024  -0.00024
  58        2S         -0.00010  -0.00004  -0.00022  -0.00070  -0.00022
  59        3S         -0.00040   0.00229   0.00168   0.00822  -0.00053
  60        4PX         0.00003   0.00000   0.00005   0.00006  -0.00009
  61        4PY         0.00001  -0.00001   0.00004  -0.00006   0.00007
  62        4PZ        -0.00005  -0.00001  -0.00006  -0.00008   0.00015
  63        5PX         0.00031  -0.00159  -0.00054  -0.00569   0.00259
  64        5PY         0.00020  -0.00159  -0.00023   0.00705  -0.00054
  65        5PZ        -0.00014   0.00149   0.00055   0.00746  -0.00327
  66        6D 0       -0.00001   0.00007  -0.00004  -0.00002  -0.00010
  67        6D+1        0.00003   0.00022   0.00014  -0.00040   0.00030
  68        6D-1       -0.00002   0.00006   0.00006   0.00051  -0.00003
  69        6D+2        0.00003   0.00021   0.00002  -0.00018  -0.00012
  70        6D-2       -0.00005  -0.00007  -0.00011  -0.00041  -0.00000
  71 6   C  1S          0.10115   0.72594   0.68378   0.00020  -0.00034
  72        2S         -0.00008   0.00406   0.00309   0.00037  -0.00062
  73        3S          0.00119  -0.00993  -0.00612  -0.00490   0.00377
  74        4PX        -0.00010  -0.00009  -0.00003  -0.00004  -0.00002
  75        4PY         0.00002   0.00024   0.00007   0.00002  -0.00000
  76        4PZ        -0.00005  -0.00001  -0.00002   0.00002   0.00006
  77        5PX        -0.00055   0.00028   0.00017  -0.00053   0.00124
  78        5PY         0.00075  -0.00224  -0.00047  -0.00382   0.00225
  79        5PZ        -0.00060   0.00113   0.00066   0.00035  -0.00137
  80        6D 0       -0.00006   0.00015   0.00013   0.00023  -0.00015
  81        6D+1        0.00007  -0.00030  -0.00035  -0.00012  -0.00017
  82        6D-1       -0.00008   0.00009   0.00008   0.00008  -0.00008
  83        6D+2        0.00011  -0.00032  -0.00038   0.00034  -0.00028
  84        6D-2       -0.00010   0.00023   0.00019  -0.00020   0.00021
  85 7   C  1S         -0.00236   0.00022  -0.00004   0.00001   0.00004
  86        2S         -0.00001  -0.00027  -0.00014   0.00000   0.00007
  87        3S          0.00334  -0.00005   0.00044  -0.00054  -0.00020
  88        4PX         0.00004  -0.00010  -0.00004   0.00006  -0.00005
  89        4PY        -0.00000  -0.00003   0.00000  -0.00000  -0.00001
  90        4PZ         0.00016  -0.00015  -0.00007   0.00001   0.00003
  91        5PX         0.00025  -0.00000   0.00010  -0.00041   0.00020
  92        5PY         0.00089  -0.00063  -0.00026  -0.00069   0.00013
  93        5PZ         0.00125   0.00006   0.00016   0.00067  -0.00053
  94        6D 0       -0.00011   0.00003   0.00000  -0.00004  -0.00002
  95        6D+1        0.00006  -0.00000   0.00001  -0.00001  -0.00002
  96        6D-1       -0.00024   0.00009   0.00003   0.00004  -0.00001
  97        6D+2        0.00014  -0.00003   0.00000   0.00009  -0.00006
  98        6D-2       -0.00001  -0.00002  -0.00004  -0.00002   0.00003
  99 8   C  1S          0.00235  -0.00022  -0.00003  -0.00001   0.00004
 100        2S          0.00001   0.00026  -0.00016  -0.00000   0.00007
 101        3S         -0.00333   0.00008   0.00044   0.00053  -0.00020
 102        4PX        -0.00004   0.00009  -0.00005  -0.00006  -0.00004
 103        4PY        -0.00000  -0.00003  -0.00000  -0.00000   0.00001
 104        4PZ        -0.00016   0.00014  -0.00008  -0.00001   0.00003
 105        5PX        -0.00025   0.00001   0.00010   0.00041   0.00020
 106        5PY         0.00089  -0.00061   0.00031  -0.00069  -0.00013
 107        5PZ        -0.00125  -0.00005   0.00016  -0.00067  -0.00053
 108        6D 0        0.00011  -0.00003   0.00001   0.00004  -0.00002
 109        6D+1       -0.00006   0.00000   0.00001   0.00001  -0.00002
 110        6D-1       -0.00024   0.00009  -0.00003   0.00004   0.00001
 111        6D+2       -0.00014   0.00003  -0.00000  -0.00009  -0.00006
 112        6D-2       -0.00001  -0.00002   0.00004  -0.00002  -0.00003
 113 9   H  1S          0.00006   0.00001  -0.00008  -0.00019  -0.00036
 114        2S         -0.00020  -0.00017   0.00081   0.00137   0.00118
 115        3PX        -0.00006   0.00009  -0.00004  -0.00003  -0.00003
 116        3PY        -0.00003  -0.00027   0.00033   0.00016   0.00006
 117        3PZ        -0.00004   0.00011  -0.00011   0.00007   0.00008
 118 10  H  1S         -0.00006  -0.00001  -0.00008   0.00019  -0.00036
 119        2S          0.00020   0.00023   0.00080  -0.00137   0.00118
 120        3PX         0.00006  -0.00009  -0.00003   0.00003  -0.00003
 121        3PY        -0.00003  -0.00029  -0.00031   0.00016  -0.00007
 122        3PZ         0.00004  -0.00012  -0.00010  -0.00007   0.00008
 123 11  O  1S         -0.00001  -0.00006   0.00006   0.00002   0.00002
 124        2S         -0.00001  -0.00012   0.00012   0.00004   0.00003
 125        3S         -0.00008   0.00052  -0.00044  -0.00008  -0.00011
 126        4PX        -0.00001   0.00001  -0.00001   0.00003   0.00002
 127        4PY         0.00003  -0.00002   0.00001  -0.00000   0.00000
 128        4PZ         0.00000  -0.00002   0.00001  -0.00002  -0.00002
 129        5PX         0.00004   0.00005  -0.00004  -0.00016  -0.00009
 130        5PY         0.00000  -0.00008   0.00007   0.00014   0.00007
 131        5PZ         0.00021   0.00013  -0.00014   0.00012   0.00009
 132        6D 0        0.00002   0.00000  -0.00001   0.00001   0.00000
 133        6D+1        0.00000   0.00001  -0.00001  -0.00000  -0.00000
 134        6D-1       -0.00002  -0.00000   0.00000   0.00000   0.00000
 135        6D+2        0.00004  -0.00001  -0.00000   0.00001   0.00001
 136        6D-2        0.00001  -0.00001   0.00001   0.00001   0.00000
 137 12  O  1S          0.00001   0.00007   0.00006  -0.00002   0.00002
 138        2S          0.00001   0.00012   0.00011  -0.00004   0.00003
 139        3S          0.00008  -0.00055  -0.00040   0.00008  -0.00011
 140        4PX         0.00001  -0.00001  -0.00001  -0.00003   0.00002
 141        4PY         0.00003  -0.00002  -0.00001  -0.00000  -0.00000
 142        4PZ        -0.00000   0.00002   0.00001   0.00002  -0.00002
 143        5PX        -0.00004  -0.00005  -0.00004   0.00016  -0.00009
 144        5PY         0.00000  -0.00008  -0.00007   0.00014  -0.00007
 145        5PZ        -0.00021  -0.00014  -0.00013  -0.00012   0.00009
 146        6D 0       -0.00002  -0.00000  -0.00000  -0.00001   0.00000
 147        6D+1       -0.00000  -0.00001  -0.00001   0.00000  -0.00000
 148        6D-1       -0.00002  -0.00000  -0.00000   0.00000  -0.00000
 149        6D+2       -0.00004   0.00001  -0.00000  -0.00001   0.00001
 150        6D-2        0.00001  -0.00001  -0.00001   0.00001  -0.00000
 151 13  H  1S         -0.00013   0.00031  -0.00006   0.00034  -0.00016
 152        2S          0.00033   0.00110   0.00061   0.00025   0.00016
 153        3PX        -0.00003  -0.00007  -0.00008  -0.00003  -0.00001
 154        3PY         0.00001   0.00022   0.00023   0.00013  -0.00019
 155        3PZ        -0.00002   0.00026   0.00028   0.00006   0.00002
 156 14  H  1S          0.00013  -0.00032  -0.00003  -0.00034  -0.00016
 157        2S         -0.00033  -0.00105   0.00069  -0.00025   0.00016
 158        3PX         0.00003   0.00006  -0.00008   0.00003  -0.00001
 159        3PY         0.00001   0.00020  -0.00024   0.00013   0.00019
 160        3PZ         0.00002  -0.00024   0.00029  -0.00006   0.00002
 161 15  H  1S         -0.00026  -0.00013   0.00000  -0.00007  -0.00004
 162        2S         -0.00024   0.00011  -0.00004   0.00005   0.00007
 163        3PX        -0.00015  -0.00006   0.00001  -0.00006   0.00006
 164        3PY        -0.00018   0.00002   0.00004  -0.00005  -0.00000
 165        3PZ         0.00033  -0.00008  -0.00002  -0.00003   0.00002
 166 16  H  1S          0.00026   0.00013  -0.00001   0.00007  -0.00004
 167        2S          0.00024  -0.00011  -0.00004  -0.00005   0.00007
 168        3PX         0.00015   0.00006   0.00000   0.00006   0.00006
 169        3PY        -0.00018   0.00002  -0.00004  -0.00005   0.00000
 170        3PZ        -0.00033   0.00008  -0.00003   0.00003   0.00002
 171 17  Cl 1S          0.00000  -0.00001  -0.00002  -0.00032   0.00020
 172        2S          0.00002  -0.00009  -0.00015  -0.70968   0.71257
 173        3S          0.00003  -0.00010  -0.00018  -0.00297   0.00189
 174        4S         -0.00005   0.00028   0.00035   0.01450  -0.01088
 175        5PX        -0.00001   0.00001   0.00001   0.00189  -0.00192
 176        5PY         0.00000   0.00001  -0.00000  -0.00206   0.00199
 177        5PZ        -0.00000  -0.00000  -0.00001  -0.00290   0.00294
 178        6PX        -0.00003   0.00004   0.00002   0.00038  -0.00046
 179        6PY         0.00000   0.00003  -0.00000  -0.00058   0.00027
 180        6PZ        -0.00000  -0.00001  -0.00004  -0.00057   0.00069
 181        7PX         0.00004  -0.00004  -0.00010  -0.00192   0.00133
 182        7PY        -0.00003   0.00016   0.00012   0.00219  -0.00128
 183        7PZ         0.00001   0.00004   0.00014   0.00311  -0.00210
 184        8D 0        0.00001  -0.00001  -0.00000   0.00009  -0.00003
 185        8D+1       -0.00001  -0.00002  -0.00005  -0.00014   0.00009
 186        8D-1       -0.00001   0.00004   0.00001   0.00007  -0.00012
 187        8D+2       -0.00000  -0.00001  -0.00000  -0.00002   0.00003
 188        8D-2       -0.00001   0.00000   0.00000  -0.00003   0.00006
 189 18  Cl 1S         -0.00000   0.00001  -0.00002   0.00032   0.00020
 190        2S         -0.00002   0.00008  -0.00016   0.71345   0.70879
 191        3S         -0.00003   0.00008  -0.00018   0.00298   0.00188
 192        4S          0.00005  -0.00026   0.00037  -0.01456  -0.01081
 193        5PX         0.00001  -0.00001   0.00001  -0.00190  -0.00191
 194        5PY         0.00000   0.00001   0.00000  -0.00207  -0.00198
 195        5PZ         0.00000   0.00000  -0.00001   0.00291   0.00293
 196        6PX         0.00003  -0.00003   0.00003  -0.00038  -0.00045
 197        6PY         0.00000   0.00003   0.00000  -0.00058  -0.00027
 198        6PZ         0.00000   0.00001  -0.00004   0.00058   0.00069
 199        7PX        -0.00004   0.00004  -0.00010   0.00193   0.00132
 200        7PY        -0.00003   0.00016  -0.00013   0.00220   0.00127
 201        7PZ        -0.00001  -0.00003   0.00014  -0.00312  -0.00209
 202        8D 0       -0.00001   0.00001  -0.00000  -0.00009  -0.00003
 203        8D+1        0.00001   0.00002  -0.00005   0.00014   0.00009
 204        8D-1       -0.00001   0.00004  -0.00002   0.00007   0.00012
 205        8D+2        0.00000   0.00001  -0.00001   0.00002   0.00003
 206        8D-2       -0.00001  -0.00000  -0.00000  -0.00003  -0.00006
 207 19  O  1S          0.00000   0.00000   0.00003   0.00000   0.00008
 208        2S          0.00000   0.00000   0.00006   0.00000   0.00014
 209        3S         -0.00000  -0.00000  -0.00002  -0.00000  -0.00059
 210        4PX         0.00000   0.00000   0.00003   0.00000   0.00002
 211        4PY         0.00005  -0.00002   0.00000   0.00006  -0.00000
 212        4PZ         0.00000   0.00000   0.00003  -0.00000  -0.00004
 213        5PX        -0.00000  -0.00000  -0.00014  -0.00000  -0.00009
 214        5PY         0.00024  -0.00007   0.00000  -0.00078   0.00000
 215        5PZ        -0.00000  -0.00000  -0.00014   0.00000   0.00006
 216        6D 0        0.00000  -0.00000  -0.00002   0.00000   0.00001
 217        6D+1       -0.00000  -0.00000  -0.00001  -0.00000  -0.00001
 218        6D-1        0.00003  -0.00001   0.00000  -0.00005   0.00000
 219        6D+2        0.00000   0.00000   0.00000   0.00000   0.00001
 220        6D-2       -0.00001   0.00001  -0.00000  -0.00000   0.00000
                          16        17        18        19        20
                           O         O         O         O         O
     Eigenvalues --    -8.04881  -8.04881  -8.04519  -8.04519  -8.04510
   1 1   C  1S          0.00000  -0.00001  -0.00003   0.00002  -0.00002
   2        2S          0.00001  -0.00002  -0.00006   0.00004  -0.00004
   3        3S         -0.00009   0.00008   0.00035  -0.00005   0.00025
   4        4PX         0.00000  -0.00000  -0.00001   0.00001  -0.00002
   5        4PY        -0.00000  -0.00000   0.00001   0.00000   0.00001
   6        4PZ        -0.00000   0.00000   0.00001  -0.00001   0.00000
   7        5PX        -0.00003   0.00002   0.00019  -0.00007   0.00016
   8        5PY         0.00001   0.00000   0.00013  -0.00001   0.00014
   9        5PZ         0.00012  -0.00007  -0.00025   0.00009  -0.00012
  10        6D 0       -0.00000   0.00000   0.00001  -0.00001   0.00001
  11        6D+1        0.00001  -0.00000  -0.00001   0.00002  -0.00002
  12        6D-1        0.00000   0.00000  -0.00001  -0.00001  -0.00000
  13        6D+2        0.00000  -0.00000  -0.00000   0.00000  -0.00001
  14        6D-2       -0.00000  -0.00000   0.00001   0.00001   0.00001
  15 2   C  1S         -0.00001  -0.00001   0.00004   0.00002   0.00003
  16        2S         -0.00001  -0.00002   0.00006   0.00003   0.00005
  17        3S          0.00010   0.00007  -0.00036  -0.00002  -0.00025
  18        4PX        -0.00000  -0.00000   0.00002   0.00001   0.00002
  19        4PY        -0.00000   0.00000   0.00001  -0.00000   0.00000
  20        4PZ         0.00000   0.00000  -0.00002  -0.00000  -0.00000
  21        5PX         0.00003   0.00002  -0.00020  -0.00005  -0.00017
  22        5PY         0.00001  -0.00000   0.00013  -0.00001   0.00014
  23        5PZ        -0.00013  -0.00005   0.00026   0.00006   0.00012
  24        6D 0        0.00000   0.00000  -0.00001  -0.00001  -0.00001
  25        6D+1       -0.00001  -0.00000   0.00001   0.00001   0.00002
  26        6D-1        0.00000  -0.00000  -0.00000   0.00001  -0.00000
  27        6D+2       -0.00000  -0.00000   0.00000   0.00000   0.00001
  28        6D-2       -0.00000   0.00000   0.00000  -0.00001   0.00001
  29 3   C  1S          0.00002   0.00001  -0.00008  -0.00002   0.00002
  30        2S          0.00002   0.00002  -0.00014  -0.00004   0.00004
  31        3S          0.00027  -0.00004   0.00075  -0.00019  -0.00052
  32        4PX         0.00002   0.00001  -0.00001  -0.00002   0.00001
  33        4PY        -0.00001  -0.00000  -0.00000   0.00000   0.00001
  34        4PZ        -0.00002  -0.00001   0.00004   0.00003   0.00000
  35        5PX         0.00006   0.00001   0.00033   0.00004  -0.00020
  36        5PY        -0.00026  -0.00010  -0.00026   0.00006   0.00024
  37        5PZ         0.00002   0.00002  -0.00048  -0.00008   0.00029
  38        6D 0        0.00002   0.00000   0.00002   0.00003  -0.00001
  39        6D+1        0.00000   0.00001  -0.00006  -0.00004   0.00002
  40        6D-1        0.00001   0.00001  -0.00002  -0.00003  -0.00002
  41        6D+2        0.00003   0.00001   0.00002   0.00004   0.00003
  42        6D-2       -0.00000  -0.00001   0.00000   0.00002  -0.00001
  43 4   C  1S         -0.00008  -0.00005   0.00002   0.00002  -0.00003
  44        2S          0.00013   0.00014   0.00003   0.00004  -0.00004
  45        3S         -0.00043   0.00001  -0.00094   0.00006   0.00107
  46        4PX         0.00010   0.00010   0.00002   0.00005   0.00004
  47        4PY         0.00012   0.00008   0.00001  -0.00005  -0.00000
  48        4PZ        -0.00015  -0.00016   0.00001  -0.00001   0.00000
  49        5PX         0.00038   0.00006   0.00023  -0.00021  -0.00070
  50        5PY         0.00030   0.00011  -0.00016   0.00010  -0.00033
  51        5PZ        -0.00057  -0.00008  -0.00043   0.00012   0.00036
  52        6D 0        0.00008   0.00005   0.00003   0.00003  -0.00009
  53        6D+1       -0.00012  -0.00007  -0.00003  -0.00004  -0.00002
  54        6D-1       -0.00014  -0.00011   0.00007   0.00002  -0.00003
  55        6D+2        0.00002   0.00001   0.00008   0.00006  -0.00003
  56        6D-2        0.00010   0.00007   0.00001  -0.00000   0.00006
  57 5   C  1S          0.00007  -0.00006  -0.00002   0.00002   0.00003
  58        2S         -0.00011   0.00016  -0.00002   0.00004   0.00004
  59        3S          0.00043  -0.00004   0.00094  -0.00004  -0.00107
  60        4PX        -0.00009   0.00011  -0.00002   0.00005  -0.00004
  61        4PY         0.00011  -0.00010   0.00002   0.00004  -0.00001
  62        4PZ         0.00013  -0.00018  -0.00001  -0.00000   0.00000
  63        5PX        -0.00037   0.00010  -0.00025  -0.00018   0.00068
  64        5PY         0.00029  -0.00014  -0.00017  -0.00008  -0.00031
  65        5PZ         0.00055  -0.00015   0.00044   0.00008  -0.00036
  66        6D 0       -0.00008   0.00006  -0.00002   0.00003   0.00008
  67        6D+1        0.00011  -0.00009   0.00003  -0.00004   0.00002
  68        6D-1       -0.00013   0.00013   0.00007  -0.00002  -0.00003
  69        6D+2       -0.00001   0.00001  -0.00007   0.00007   0.00002
  70        6D-2        0.00009  -0.00008   0.00001   0.00000   0.00006
  71 6   C  1S         -0.00001   0.00002   0.00008  -0.00003  -0.00002
  72        2S         -0.00002   0.00002   0.00014  -0.00005  -0.00004
  73        3S         -0.00027  -0.00001  -0.00077  -0.00012   0.00052
  74        4PX        -0.00002   0.00001   0.00001  -0.00002  -0.00001
  75        4PY        -0.00000   0.00001  -0.00000  -0.00000   0.00001
  76        4PZ         0.00002  -0.00001  -0.00003   0.00004  -0.00000
  77        5PX        -0.00006   0.00001  -0.00032   0.00007   0.00019
  78        5PY        -0.00024   0.00013  -0.00026  -0.00003   0.00024
  79        5PZ        -0.00002   0.00002   0.00047  -0.00012  -0.00028
  80        6D 0       -0.00002   0.00000  -0.00002   0.00003   0.00001
  81        6D+1       -0.00000   0.00001   0.00005  -0.00004  -0.00002
  82        6D-1        0.00001  -0.00002  -0.00002   0.00003  -0.00002
  83        6D+2       -0.00003   0.00002  -0.00002   0.00004  -0.00003
  84        6D-2       -0.00000   0.00001   0.00000  -0.00002  -0.00000
  85 7   C  1S         -0.00001   0.00001  -0.00000  -0.00001   0.00000
  86        2S         -0.00002   0.00001  -0.00001  -0.00001   0.00000
  87        3S          0.00018  -0.00013  -0.00039   0.00025  -0.00032
  88        4PX        -0.00000   0.00000   0.00001  -0.00002   0.00002
  89        4PY        -0.00000  -0.00000  -0.00000  -0.00001  -0.00000
  90        4PZ         0.00000  -0.00000  -0.00001   0.00001   0.00000
  91        5PX         0.00003  -0.00001  -0.00009   0.00007  -0.00012
  92        5PY         0.00002  -0.00002  -0.00004  -0.00005   0.00006
  93        5PZ         0.00003  -0.00004   0.00010  -0.00007   0.00013
  94        6D 0        0.00000  -0.00000  -0.00001  -0.00000  -0.00001
  95        6D+1        0.00000  -0.00000  -0.00000   0.00000  -0.00001
  96        6D-1        0.00000  -0.00000   0.00000   0.00001  -0.00000
  97        6D+2       -0.00001   0.00001   0.00003  -0.00003   0.00003
  98        6D-2        0.00000  -0.00000  -0.00001   0.00001  -0.00000
  99 8   C  1S          0.00001   0.00001   0.00000  -0.00001  -0.00000
 100        2S          0.00002   0.00001   0.00001  -0.00001  -0.00000
 101        3S         -0.00019  -0.00010   0.00041   0.00021   0.00035
 102        4PX         0.00000   0.00000  -0.00002  -0.00002  -0.00003
 103        4PY        -0.00000   0.00000  -0.00000   0.00001  -0.00000
 104        4PZ        -0.00000  -0.00000   0.00001   0.00001  -0.00000
 105        5PX        -0.00003  -0.00001   0.00009   0.00006   0.00013
 106        5PY         0.00002   0.00002  -0.00003   0.00006   0.00007
 107        5PZ        -0.00004  -0.00003  -0.00010  -0.00006  -0.00014
 108        6D 0       -0.00000  -0.00000   0.00001  -0.00000   0.00001
 109        6D+1       -0.00000  -0.00000   0.00000   0.00000   0.00001
 110        6D-1        0.00000   0.00000   0.00000  -0.00001  -0.00000
 111        6D+2        0.00001   0.00001  -0.00003  -0.00003  -0.00003
 112        6D-2        0.00000   0.00000  -0.00001  -0.00001  -0.00001
 113 9   H  1S          0.00004   0.00002  -0.00006  -0.00000   0.00005
 114        2S          0.00010   0.00006   0.00021   0.00010  -0.00015
 115        3PX        -0.00001  -0.00000  -0.00000   0.00000   0.00001
 116        3PY        -0.00001  -0.00001  -0.00003  -0.00003   0.00000
 117        3PZ         0.00001   0.00001   0.00003   0.00001  -0.00001
 118 10  H  1S         -0.00003   0.00002   0.00006  -0.00001  -0.00005
 119        2S         -0.00009   0.00007  -0.00020   0.00012   0.00014
 120        3PX         0.00001  -0.00001   0.00000   0.00000  -0.00001
 121        3PY        -0.00001   0.00001  -0.00002   0.00004   0.00000
 122        3PZ        -0.00001   0.00001  -0.00003   0.00001   0.00001
 123 11  O  1S         -0.00000  -0.00000   0.00002   0.00002   0.00003
 124        2S         -0.00001  -0.00000   0.00004   0.00003   0.00005
 125        3S          0.00003   0.00001  -0.00017  -0.00016  -0.00024
 126        4PX        -0.00000  -0.00000   0.00000  -0.00000   0.00000
 127        4PY        -0.00000  -0.00000   0.00000   0.00000   0.00000
 128        4PZ         0.00000   0.00000  -0.00000  -0.00000  -0.00001
 129        5PX         0.00001   0.00000  -0.00002  -0.00001  -0.00003
 130        5PY        -0.00002  -0.00001   0.00006   0.00006   0.00008
 131        5PZ         0.00001   0.00001   0.00000  -0.00001   0.00000
 132        6D 0       -0.00000  -0.00000   0.00000   0.00000   0.00000
 133        6D+1        0.00000   0.00000  -0.00000  -0.00000  -0.00000
 134        6D-1       -0.00000  -0.00000   0.00000   0.00000   0.00000
 135        6D+2       -0.00000  -0.00000   0.00000   0.00001   0.00001
 136        6D-2       -0.00000  -0.00000   0.00000   0.00000   0.00000
 137 12  O  1S          0.00000  -0.00000  -0.00002   0.00002  -0.00002
 138        2S          0.00001  -0.00000  -0.00003   0.00004  -0.00004
 139        3S         -0.00003   0.00002   0.00015  -0.00018   0.00022
 140        4PX         0.00000  -0.00000  -0.00000  -0.00000  -0.00000
 141        4PY        -0.00000   0.00000   0.00000  -0.00000   0.00000
 142        4PZ        -0.00000   0.00000   0.00000  -0.00000   0.00001
 143        5PX        -0.00001   0.00000   0.00002  -0.00001   0.00003
 144        5PY        -0.00001   0.00001   0.00006  -0.00006   0.00007
 145        5PZ        -0.00001   0.00001  -0.00000  -0.00001  -0.00000
 146        6D 0        0.00000  -0.00000  -0.00000   0.00000  -0.00000
 147        6D+1       -0.00000   0.00000   0.00000  -0.00000   0.00000
 148        6D-1       -0.00000   0.00000   0.00000  -0.00000   0.00000
 149        6D+2        0.00000  -0.00000  -0.00000   0.00001  -0.00000
 150        6D-2       -0.00000   0.00000   0.00000  -0.00000   0.00000
 151 13  H  1S          0.00003   0.00000   0.00003  -0.00000  -0.00000
 152        2S          0.00003  -0.00001  -0.00020   0.00008   0.00009
 153        3PX        -0.00000   0.00000   0.00000  -0.00000   0.00000
 154        3PY        -0.00001  -0.00000   0.00001   0.00001  -0.00001
 155        3PZ         0.00001  -0.00001  -0.00001   0.00001   0.00000
 156 14  H  1S         -0.00002   0.00000  -0.00003  -0.00000   0.00000
 157        2S         -0.00003  -0.00000   0.00021   0.00006  -0.00009
 158        3PX         0.00000   0.00000  -0.00000   0.00000  -0.00000
 159        3PY        -0.00001   0.00000   0.00001  -0.00001  -0.00001
 160        3PZ        -0.00001  -0.00001   0.00002   0.00001  -0.00000
 161 15  H  1S         -0.00000   0.00000   0.00001  -0.00000  -0.00000
 162        2S         -0.00003   0.00002   0.00009  -0.00006   0.00009
 163        3PX         0.00000   0.00000  -0.00002   0.00001  -0.00001
 164        3PY        -0.00000   0.00000   0.00001  -0.00001  -0.00000
 165        3PZ        -0.00001   0.00000   0.00001   0.00000   0.00000
 166 16  H  1S          0.00000   0.00000  -0.00001  -0.00000   0.00000
 167        2S          0.00004   0.00002  -0.00009  -0.00005  -0.00009
 168        3PX        -0.00000   0.00000   0.00002   0.00000   0.00001
 169        3PY        -0.00000  -0.00000   0.00001   0.00001  -0.00000
 170        3PZ         0.00001   0.00000  -0.00001   0.00000  -0.00000
 171 17  Cl 1S         -0.00002   0.00002   0.00001   0.00001  -0.00000
 172        2S          0.00330  -0.00373   0.00002   0.00010   0.00002
 173        3S         -0.00080   0.00086   0.00009   0.00005  -0.00004
 174        4S          0.00055  -0.00037  -0.00010  -0.00005  -0.00014
 175        5PX         0.31229  -0.34974  -0.48628   0.53946  -0.33586
 176        5PY        -0.34447   0.38579  -0.46060   0.50935   0.34013
 177        5PZ        -0.47682   0.53401   0.01426  -0.01466  -0.46570
 178        6PX         0.00010  -0.00013   0.00078  -0.00081   0.00050
 179        6PY        -0.00012   0.00014   0.00081  -0.00079  -0.00061
 180        6PZ        -0.00015   0.00019  -0.00007   0.00006   0.00075
[...]
                           66.958%  O   11 s( 44.90%)p 1.22( 54.98%)d 0.00(  0.12%)
                            0.028%  O   19 s( 27.01%)p 2.64( 71.33%)d 0.06(  1.66%)
    22. (2.00000)  99.2853%  BD ( 2) C   8 O  11      
                            0.152%  C    1 s(  0.59%)p99.99( 99.31%)d 0.16(  0.09%)
                            0.284%  C    2 s(  0.31%)p99.99( 98.36%)d 4.27(  1.33%)
                            0.034%  C    3 s( 11.47%)p 7.60( 87.12%)d 0.12(  1.41%)
                            0.026%  C    4 s( 14.54%)p 5.77( 83.84%)d 0.11(  1.62%)
                            0.023%  C    5 s(  0.58%)p99.99( 99.39%)d 0.04(  0.03%)
                            0.011%  C    6 s(  4.93%)p19.05( 93.98%)d 0.22(  1.09%)
                            0.092%  C    7 s(  2.37%)p40.71( 96.61%)d 0.43(  1.01%)
                           28.786%  C    8 s(  0.05%)p99.99( 99.07%)d18.20(  0.88%)
                           70.500%  O   11 s(  0.04%)p99.99( 99.75%)d 5.91(  0.21%)
                            0.042%  O   12 s(  0.40%)p99.99( 99.54%)d 0.15(  0.06%)
                            0.039%  O   19 s(  1.57%)p59.48( 93.51%)d 3.13(  4.92%)
    23. (2.00000)  99.3881%  BD ( 1) C   8 O  19      
                            0.020%  C    1 s( 17.81%)p 4.01( 71.37%)d 0.61( 10.82%)
                            0.098%  C    2 s( 44.24%)p 1.15( 50.88%)d 0.11(  4.88%)
                            0.299%  C    7 s( 11.54%)p 7.15( 82.58%)d 0.51(  5.87%)
                           28.608%  C    8 s( 27.61%)p 2.60( 71.87%)d 0.02(  0.52%)
                            0.020%  O   11 s( 31.65%)p 2.13( 67.57%)d 0.02(  0.78%)
                            0.071%  O   12 s( 46.46%)p 1.13( 52.37%)d 0.03(  1.17%)
                            0.068%  H   16 s( 99.71%)p 0.00(  0.29%)
                           70.803%  O   19 s( 30.87%)p 2.24( 69.01%)d 0.00(  0.12%)
    24. (2.00000)  99.9448%  CR ( 1) C   1            
                           99.951%  C    1 s( 99.99%)p 0.00(  0.01%)d 0.00(  0.00%)
                            0.020%  C    2 s( 14.98%)p 5.51( 82.62%)d 0.16(  2.40%)
                            0.016%  C    7 s( 20.10%)p 3.85( 77.35%)d 0.13(  2.55%)
    25. (2.00000)  99.9448%  CR ( 1) C   2            
                            0.020%  C    1 s( 14.98%)p 5.51( 82.62%)d 0.16(  2.40%)
                           99.951%  C    2 s( 99.99%)p 0.00(  0.01%)d 0.00(  0.00%)
                            0.016%  C    8 s( 20.10%)p 3.85( 77.35%)d 0.13(  2.55%)
    26. (2.00000)  99.9521%  CR ( 1) C   3            
                           99.957%  C    3 s(100.00%)p 0.00(  0.00%)d 0.00(  0.00%)
                            0.025%  C    4 s( 13.09%)p 6.49( 84.94%)d 0.15(  1.97%)
    27. (2.00000)  99.9190%  CR ( 1) C   4            
                            0.021%  C    3 s( 15.00%)p 5.51( 82.61%)d 0.16(  2.39%)
                           99.935%  C    4 s( 99.98%)p 0.00(  0.01%)d 0.00(  0.00%)
                            0.026%  C    5 s( 16.39%)p 5.00( 81.94%)d 0.10(  1.67%)
                            0.011% Cl   18 s( 24.33%)p 2.76( 67.10%)d 0.35(  8.57%)
    28. (2.00000)  99.9190%  CR ( 1) C   5            
                            0.026%  C    4 s( 16.39%)p 5.00( 81.94%)d 0.10(  1.67%)
                           99.935%  C    5 s( 99.98%)p 0.00(  0.01%)d 0.00(  0.00%)
                            0.021%  C    6 s( 15.00%)p 5.51( 82.61%)d 0.16(  2.39%)
                            0.011% Cl   17 s( 24.33%)p 2.76( 67.10%)d 0.35(  8.57%)
    29. (2.00000)  99.9521%  CR ( 1) C   6            
                            0.025%  C    5 s( 13.09%)p 6.49( 84.94%)d 0.15(  1.97%)
                           99.957%  C    6 s(100.00%)p 0.00(  0.00%)d 0.00(  0.00%)
    30. (2.00000)  99.9599%  CR ( 1) C   7            
                            0.016%  C    1 s(  8.56%)p10.27( 87.93%)d 0.41(  3.51%)
                           99.969%  C    7 s( 99.99%)p 0.00(  0.01%)d 0.00(  0.00%)
    31. (2.00000)  99.9599%  CR ( 1) C   8            
                            0.016%  C    2 s(  8.56%)p10.27( 87.93%)d 0.41(  3.51%)
                           99.969%  C    8 s( 99.99%)p 0.00(  0.01%)d 0.00(  0.00%)
    32. (2.00000)  99.9881%  CR ( 1) O  11            
                            0.011%  C    8 s( 17.49%)p 4.27( 74.71%)d 0.45(  7.79%)
                           99.989%  O   11 s(100.00%)p 0.00(  0.00%)d 0.00(  0.00%)
    33. (2.00000)  99.9881%  CR ( 1) O  12            
                            0.011%  C    7 s( 17.49%)p 4.27( 74.71%)d 0.45(  7.79%)
                           99.989%  O   12 s(100.00%)p 0.00(  0.00%)d 0.00(  0.00%)
    34. (2.00000) 100.0000%  CR ( 1)Cl  17            
                          100.000% Cl   17 s(100.00%)p 0.00(  0.00%)d 0.00(  0.00%)
    35. (2.00000)  99.9864%  CR ( 2)Cl  17            
                            0.011%  C    5 s( 15.95%)p 4.44( 70.77%)d 0.83( 13.28%)
                           99.987% Cl   17 s(100.00%)p 0.00(  0.00%)d 0.00(  0.00%)
    36. (2.00000)  99.9989%  CR ( 3)Cl  17            
                           99.999% Cl   17 s(  0.00%)p 1.00(100.00%)d 0.00(  0.00%)
    37. (2.00000)  99.9987%  CR ( 4)Cl  17            
                           99.999% Cl   17 s(  0.00%)p 1.00(100.00%)d 0.00(  0.00%)
    38. (2.00000)  99.9978%  CR ( 5)Cl  17            
                           99.998% Cl   17 s(  0.00%)p 1.00(100.00%)d 0.00(  0.00%)
    39. (2.00000) 100.0000%  CR ( 1)Cl  18            
                          100.000% Cl   18 s(100.00%)p 0.00(  0.00%)d 0.00(  0.00%)
    40. (2.00000)  99.9864%  CR ( 2)Cl  18            
                            0.011%  C    4 s( 15.95%)p 4.44( 70.77%)d 0.83( 13.28%)
                           99.987% Cl   18 s(100.00%)p 0.00(  0.00%)d 0.00(  0.00%)
    41. (2.00000)  99.9989%  CR ( 3)Cl  18            
                           99.999% Cl   18 s(  0.00%)p 1.00(100.00%)d 0.00(  0.00%)
    42. (2.00000)  99.9987%  CR ( 4)Cl  18            
                           99.999% Cl   18 s(  0.00%)p 1.00(100.00%)d 0.00(  0.00%)
    43. (2.00000)  99.9978%  CR ( 5)Cl  18            
                           99.998% Cl   18 s(  0.00%)p 1.00(100.00%)d 0.00(  0.00%)
    44. (2.00000)  99.9859%  CR ( 1) O  19            
                           99.987%  O   19 s(100.00%)p 0.00(  0.00%)d 0.00(  0.00%)
    45. (2.00000)  98.7425%  LP ( 1) O  11            
                            0.134%  C    2 s( 16.19%)p 5.14( 83.17%)d 0.04(  0.64%)
                            1.066%  C    8 s( 20.40%)p 3.90( 79.59%)d 0.00(  0.01%)
                           98.743%  O   11 s( 55.02%)p 0.82( 44.95%)d 0.00(  0.02%)
                            0.021%  O   19 s( 27.23%)p 2.52( 68.56%)d 0.15(  4.20%)
    46. (2.00000)  93.2709%  LP ( 2) O  11            
                            0.074%  C    1 s( 23.58%)p 3.18( 74.90%)d 0.06(  1.52%)
                            0.885%  C    2 s( 44.17%)p 1.19( 52.65%)d 0.07(  3.18%)
                            0.096%  C    7 s( 14.42%)p 5.80( 83.62%)d 0.14(  1.96%)
                            4.406%  C    8 s(  1.51%)p61.46( 92.61%)d 3.91(  5.88%)
                           93.272%  O   11 s(  0.05%)p99.99( 99.84%)d 2.21(  0.11%)
                            0.010%  O   12 s( 21.69%)p 3.55( 76.98%)d 0.06(  1.33%)
                            0.016%  H   15 s( 99.89%)p 0.00(  0.11%)
                            1.222%  O   19 s( 41.48%)p 1.40( 57.97%)d 0.01(  0.55%)
    47. (2.00000)  98.7425%  LP ( 1) O  12            
                            0.134%  C    1 s( 16.19%)p 5.14( 83.17%)d 0.04(  0.64%)
                            1.066%  C    7 s( 20.40%)p 3.90( 79.59%)d 0.00(  0.01%)
                           98.743%  O   12 s( 55.02%)p 0.82( 44.95%)d 0.00(  0.02%)
                            0.021%  O   19 s( 27.23%)p 2.52( 68.57%)d 0.15(  4.20%)
    48. (2.00000)  93.2709%  LP ( 2) O  12            
                            0.885%  C    1 s( 44.17%)p 1.19( 52.65%)d 0.07(  3.18%)
                            0.074%  C    2 s( 23.58%)p 3.18( 74.90%)d 0.06(  1.52%)
                            4.406%  C    7 s(  1.51%)p61.46( 92.61%)d 3.90(  5.88%)
                            0.096%  C    8 s( 14.42%)p 5.80( 83.62%)d 0.14(  1.96%)
                            0.010%  O   11 s( 21.69%)p 3.55( 76.98%)d 0.06(  1.33%)
                           93.272%  O   12 s(  0.05%)p99.99( 99.84%)d 2.21(  0.11%)
                            0.016%  H   16 s( 99.89%)p 0.00(  0.11%)
                            1.223%  O   19 s( 41.47%)p 1.40( 57.97%)d 0.01(  0.55%)
    49. (2.00000)  99.5931%  LP ( 1)Cl  17            
                            0.058%  C    4 s( 11.00%)p 7.90( 86.89%)d 0.19(  2.11%)
                            0.229%  C    5 s( 25.48%)p 2.66( 67.85%)d 0.26(  6.67%)
                            0.073%  C    6 s( 15.74%)p 5.28( 83.17%)d 0.07(  1.09%)
                            0.020%  H   10 s( 99.69%)p 0.00(  0.31%)
                           99.593% Cl   17 s( 80.78%)p 0.24( 19.18%)d 0.00(  0.04%)
    50. (2.00000)  98.6489%  LP ( 2)Cl  17            
                            0.032%  C    3 s( 44.46%)p 1.23( 54.54%)d 0.02(  1.00%)
                            0.317%  C    4 s( 60.52%)p 0.64( 38.76%)d 0.01(  0.72%)
                            0.685%  C    5 s(  0.40%)p99.99( 90.64%)d22.27(  8.96%)
                            0.233%  C    6 s( 60.41%)p 0.64( 38.55%)d 0.02(  1.04%)
                            0.063%  H   13 s( 99.61%)p 0.00(  0.39%)
                           98.650% Cl   17 s(  0.19%)p99.99( 99.79%)d 0.09(  0.02%)
    51. (2.00000)  96.8734%  LP ( 3)Cl  17            
                            0.031%  C    1 s(  6.86%)p13.22( 90.73%)d 0.35(  2.41%)
                            0.233%  C    2 s(  2.17%)p45.14( 97.74%)d 0.04(  0.09%)
                            0.023%  C    3 s(  6.71%)p13.39( 89.86%)d 0.51(  3.43%)
                            0.362%  C    4 s(  2.95%)p32.73( 96.66%)d 0.13(  0.39%)
                            1.512%  C    5 s(  0.12%)p99.99( 93.54%)d51.25(  6.34%)
                            0.875%  C    6 s(  5.85%)p16.05( 93.87%)d 0.05(  0.28%)
                            0.017%  C    8 s(  2.48%)p38.25( 94.72%)d 1.13(  2.80%)
                            0.017%  O   11 s(  0.06%)p99.99( 99.86%)d 1.57(  0.09%)
                            0.025%  H   13 s( 98.71%)p 0.01(  1.29%)
                           96.874% Cl   17 s(  0.00%)p 1.00( 99.97%)d 0.00(  0.03%)
    52. (2.00000)  99.5931%  LP ( 1)Cl  18            
                            0.073%  C    3 s( 15.74%)p 5.28( 83.17%)d 0.07(  1.09%)
                            0.229%  C    4 s( 25.48%)p 2.66( 67.85%)d 0.26(  6.67%)
                            0.058%  C    5 s( 11.00%)p 7.90( 86.89%)d 0.19(  2.11%)
                            0.020%  H    9 s( 99.69%)p 0.00(  0.31%)
                           99.593% Cl   18 s( 80.78%)p 0.24( 19.18%)d 0.00(  0.04%)
    53. (2.00000)  98.6489%  LP ( 2)Cl  18            
                            0.233%  C    3 s( 60.41%)p 0.64( 38.55%)d 0.02(  1.04%)
                            0.685%  C    4 s(  0.40%)p99.99( 90.64%)d22.27(  8.96%)
                            0.317%  C    5 s( 60.52%)p 0.64( 38.76%)d 0.01(  0.72%)
                            0.032%  C    6 s( 44.46%)p 1.23( 54.55%)d 0.02(  1.00%)
                            0.063%  H   14 s( 99.61%)p 0.00(  0.39%)
                           98.650% Cl   18 s(  0.19%)p99.99( 99.79%)d 0.09(  0.02%)
    54. (2.00000)  96.8734%  LP ( 3)Cl  18            
                            0.233%  C    1 s(  2.17%)p45.14( 97.74%)d 0.04(  0.09%)
                            0.031%  C    2 s(  6.86%)p13.22( 90.73%)d 0.35(  2.41%)
                            0.875%  C    3 s(  5.85%)p16.05( 93.87%)d 0.05(  0.28%)
                            1.512%  C    4 s(  0.12%)p99.99( 93.54%)d51.26(  6.34%)
                            0.362%  C    5 s(  2.95%)p32.73( 96.66%)d 0.13(  0.39%)
                            0.023%  C    6 s(  6.71%)p13.39( 89.86%)d 0.51(  3.43%)
                            0.017%  C    7 s(  2.48%)p38.26( 94.72%)d 1.13(  2.80%)
                            0.017%  O   12 s(  0.06%)p99.99( 99.86%)d 1.57(  0.09%)
                            0.025%  H   14 s( 98.71%)p 0.01(  1.29%)
                           96.874% Cl   18 s(  0.00%)p 1.00( 99.97%)d 0.00(  0.03%)
    55. (2.00000)  98.4507%  LP ( 1) O  19            
                            0.212%  C    1 s( 47.49%)p 1.07( 50.73%)d 0.04(  1.79%)
                            0.212%  C    2 s( 47.49%)p 1.07( 50.73%)d 0.04(  1.79%)
                            0.472%  C    7 s(  2.95%)p29.89( 88.29%)d 2.96(  8.76%)
                            0.472%  C    8 s(  2.95%)p29.89( 88.29%)d 2.96(  8.76%)
                            0.067%  O   11 s( 32.87%)p 2.00( 65.62%)d 0.05(  1.51%)
                            0.067%  O   12 s( 32.87%)p 2.00( 65.62%)d 0.05(  1.51%)
                            0.019%  H   15 s( 99.92%)p 0.00(  0.08%)
                            0.019%  H   16 s( 99.92%)p 0.00(  0.08%)
                           98.451%  O   19 s( 38.24%)p 1.61( 61.71%)d 0.00(  0.05%)
    56. (2.00000)  90.4887%  LP ( 2) O  19            
                            0.021%  C    1 s( 20.45%)p 2.44( 49.91%)d 1.45( 29.64%)
                            0.021%  C    2 s( 20.46%)p 2.44( 49.90%)d 1.45( 29.64%)
                            0.055%  C    3 s(  3.88%)p24.73( 95.90%)d 0.06(  0.22%)
                            0.021%  C    4 s(  5.22%)p17.81( 93.02%)d 0.34(  1.76%)
                            0.021%  C    5 s(  5.22%)p17.80( 93.02%)d 0.34(  1.76%)
                            0.055%  C    6 s(  3.88%)p24.73( 95.90%)d 0.06(  0.22%)
                            3.374%  C    7 s(  0.04%)p99.99( 95.46%)d99.99(  4.50%)
                            3.374%  C    8 s(  0.04%)p99.99( 95.46%)d99.99(  4.50%)
                            1.268%  O   11 s(  0.15%)p99.99( 99.66%)d 1.31(  0.19%)
                            1.268%  O   12 s(  0.15%)p99.99( 99.66%)d 1.31(  0.19%)
                            0.012%  H   15 s( 99.91%)p 0.00(  0.09%)
                            0.012%  H   16 s( 99.91%)p 0.00(  0.09%)
                           90.489%  O   19 s(  0.11%)p99.99( 99.79%)d 0.93(  0.10%)
 Sorting of NBOs:                   34   39   44   33   32   40   35   30   31   28
 Sorting of NBOs:                   27   29   26   25   24   43   38   42   37   36
 Sorting of NBOs:                   41   21   18   52   49   23   20    7   13   11
 Sorting of NBOs:                    1   12   15   47   45    3    5   55    4    6
 Sorting of NBOs:                   17   10   16    9   22   19   56   53   50   54
 Sorting of NBOs:                   51   48   46    8   14    2  199  205  211  216
 Sorting of NBOs:                  219  212  209  133  129  163  167  217  220  155
 Sorting of NBOs:                  159  202  200  207  214  104   77  201  203  206
 Sorting of NBOs:                  213  120  111  208  210  204  198   67   58  172
 Sorting of NBOs:                  181  171  180  215  218   84   93  185  176  173
 Sorting of NBOs:                  182   94   85   91  100   68   59   86   95  125
 Sorting of NBOs:                  116  184  175  187  178   57   66  188  179   75
 Sorting of NBOs:                  102  103   76  174  183  177  186   78  105  140
 Sorting of NBOs:                  149  114  123  146  137  115  124  118  127  138
 Sorting of NBOs:                  147   61   70   87   96   72   63   99   90  121
 Sorting of NBOs:                  112  190   69   60  106   79   74   65  122  113
 Sorting of NBOs:                   80  107   81  108   64   73  109   82   83  110
 Sorting of NBOs:                  191  189   97   88   89   98   62   71  126  117
 Sorting of NBOs:                  130  134  156  160  168  164  101   92  161  157
 Sorting of NBOs:                  128  119  165  169  131  135  192  148  139  132
 Sorting of NBOs:                  136  162  158  166  170  142  151  195  194  193
 Sorting of NBOs:                  197  152  143  153  144  145  154  196  150  141
 Reordering of NBOs for storage:    34   39   44   33   32   40   35   30   31   28
 Reordering of NBOs for storage:    27   29   26   25   24   43   38   42   37   36
 Reordering of NBOs for storage:    41   21   18   52   49   23   20    7   13   11
 Reordering of NBOs for storage:     1   12   15   47   45    3    5   55    4    6
 Reordering of NBOs for storage:    17   10   16    9   22   19   56   53   50   54
 Reordering of NBOs for storage:    51   48   46    8   14    2  199  205  211  216
 Reordering of NBOs for storage:   219  212  209  217  220  202  200  207  214  201
 Reordering of NBOs for storage:   203  206  213  208  210  204  198  215  218  133
 Reordering of NBOs for storage:   129  163  167  155  159  104   77  120  111   67
 Reordering of NBOs for storage:    58  172  181  171  180   84   93  185  176  173
 Reordering of NBOs for storage:   182   94   85   91  100   68   59   86   95  125
 Reordering of NBOs for storage:   116  184  175  187  178   57   66  188  179   75
 Reordering of NBOs for storage:   102  103   76  174  183  177  186   78  105  140
 Reordering of NBOs for storage:   149  114  123  146  137  115  124  118  127  138
 Reordering of NBOs for storage:   147   61   70   87   96   72   63   99   90  121
 Reordering of NBOs for storage:   112  190   69   60  106   79   74   65  122  113
 Reordering of NBOs for storage:    80  107   81  108   64   73  109   82   83  110
 Reordering of NBOs for storage:   191  189   97   88   89   98   62   71  126  117
 Reordering of NBOs for storage:   130  134  156  160  168  164  101   92  161  157
 Reordering of NBOs for storage:   128  119  165  169  131  135  192  148  139  132
 Reordering of NBOs for storage:   136  162  158  166  170  142  151  195  194  193
 Reordering of NBOs for storage:   197  152  143  153  144  145  154  196  150  141
 Labels of output orbitals:  CR  CR  CR  CR  CR  CR  CR  CR  CR  CR  CR  CR  CR  CR  CR  CR  CR  CR  CR  CR  
 Labels of output orbitals:  CR  BD  BD  LP  LP  BD  BD  BD  BD  BD  BD  BD  BD  LP  LP  BD  BD  LP  BD  BD  
 Labels of output orbitals:  BD  BD  BD  BD  BD  BD  LP  LP  LP  LP  LP  LP  LP  BD  BD  BD  BD* BD* BD* BD* 
 Labels of output orbitals:  BD* BD* BD* BD* BD* BD* BD* BD* BD* BD* BD* BD* BD* BD* BD* BD* BD* BD* BD* RY* 
 Labels of output orbitals:  RY* RY* RY* RY* RY* RY* RY* RY* RY* RY* RY* RY* RY* RY* RY* RY* RY* RY* RY* RY* 
 Labels of output orbitals:  RY* RY* RY* RY* RY* RY* RY* RY* RY* RY* RY* RY* RY* RY* RY* RY* RY* RY* RY* RY* 
 Labels of output orbitals:  RY* RY* RY* RY* RY* RY* RY* RY* RY* RY* RY* RY* RY* RY* RY* RY* RY* RY* RY* RY* 
 Labels of output orbitals:  RY* RY* RY* RY* RY* RY* RY* RY* RY* RY* RY* RY* RY* RY* RY* RY* RY* RY* RY* RY* 
 Labels of output orbitals:  RY* RY* RY* RY* RY* RY* RY* RY* RY* RY* RY* RY* RY* RY* RY* RY* RY* RY* RY* RY* 
 Labels of output orbitals:  RY* RY* RY* RY* RY* RY* RY* RY* RY* RY* RY* RY* RY* RY* RY* RY* RY* RY* RY* RY* 
 Labels of output orbitals:  RY* RY* RY* RY* RY* RY* RY* RY* RY* RY* RY* RY* RY* RY* RY* RY* RY* RY* RY* RY* 
 GSVD:  LWork=       -3584 too small for GESVD, short by       16520 words or       16520 for optimal perf.
 GSVD:  LWork=      -28208 too small for GESVD, short by      136940 words or      136940 for optimal perf.
 Leave Link  607 at Thu Feb  9 09:22:38 2023, MaxMem=  1073741824 cpu:              11.1 elap:               1.4
 (Enter /public/home/zyli/senxu/soft/g16/l9999.exe)

 This type of calculation cannot be archived.


 IT IS THE BEHAVIOR AND DISTRIBUTION OF THE ELECTRONS 
 AROUND THE NUCLEUS THAT GIVES THE FUNDAMENTAL 
 CHARACTER OF AN ATOM:  IT MUST BE THE SAME FOR MOLECULES.

                               -- C. A. COULSON, 1951
 Job cpu time:       0 days  0 hours  0 minutes 19.7 seconds.
 Elapsed time:       0 days  0 hours  0 minutes  2.5 seconds.
 File lengths (MBytes):  RWF=     10 Int=      0 D2E=      0 Chk=     67 Scr=      1
 Normal termination of Gaussian 16 at Thu Feb  9 09:22:39 2023.
