[Molden Format]
[N_Atoms]
                    2
[Atoms] (AU)
N1          1      7           0.00000000      0.00000000      0.00000000
N2          2      7           0.00000000      0.00000000      7.55890450
[5D]
[7F]
[Charge] (Mulliken)
   0.0000000000000000     
   0.0000000000000000     
[GTO] (AU)
   1
   s  10
  1.142000000E+04  5.229996559E-04
  1.712000000E+03  4.044997339E-03
  3.893000000E+02  2.077498633E-02
  1.100000000E+02  8.072694689E-02
  3.557000000E+01  2.330738467E-01
  1.254000000E+01  4.335007148E-01
  4.644000000E+00  3.474717714E-01
  1.293000000E+00  4.126197285E-02
  5.118000000E-01 -8.507994403E-03
  1.787000000E-01  2.383998432E-03
   s  10
  1.142000000E+04 -1.149999544E-04
  1.712000000E+03 -8.949996452E-04
  3.893000000E+02 -4.623998167E-03
  1.100000000E+02 -1.852799265E-02
  3.557000000E+01 -5.733897727E-02
  1.254000000E+01 -1.320759476E-01
  4.644000000E+00 -1.725099316E-01
  1.293000000E+00  1.518139398E-01
  5.118000000E-01  5.999437621E-01
  1.787000000E-01  3.874618464E-01
   s   1
  1.293000000E+00  1.000000000E+00
   s   1
  1.787000000E-01  1.000000000E+00
   p   5
  2.663000000E+01  1.467000345E-02
  5.948000000E+00  9.176402155E-02
  1.742000000E+00  2.986830701E-01
  5.550000000E-01  4.984871171E-01
  1.725000000E-01  3.370230791E-01
   p   1
  5.550000000E-01  1.000000000E+00
   p   1
  1.725000000E-01  1.000000000E+00
   d   1
  1.654000000E+00  1.000000000E+00
   d   1
  4.690000000E-01  1.000000000E+00
   f   1
  1.093000000E+00  1.000000000E+00
 
   2
   s  10
  1.142000000E+04  5.229996559E-04
  1.712000000E+03  4.044997339E-03
  3.893000000E+02  2.077498633E-02
  1.100000000E+02  8.072694689E-02
  3.557000000E+01  2.330738467E-01
  1.254000000E+01  4.335007148E-01
  4.644000000E+00  3.474717714E-01
  1.293000000E+00  4.126197285E-02
  5.118000000E-01 -8.507994403E-03
  1.787000000E-01  2.383998432E-03
   s  10
  1.142000000E+04 -1.149999544E-04
  1.712000000E+03 -8.949996452E-04
  3.893000000E+02 -4.623998167E-03
  1.100000000E+02 -1.852799265E-02
  3.557000000E+01 -5.733897727E-02
  1.254000000E+01 -1.320759476E-01
  4.644000000E+00 -1.725099316E-01
  1.293000000E+00  1.518139398E-01
  5.118000000E-01  5.999437621E-01
  1.787000000E-01  3.874618464E-01
   s   1
  1.293000000E+00  1.000000000E+00
   s   1
  1.787000000E-01  1.000000000E+00
   p   5
  2.663000000E+01  1.467000345E-02
  5.948000000E+00  9.176402155E-02
  1.742000000E+00  2.986830701E-01
  5.550000000E-01  4.984871171E-01
  1.725000000E-01  3.370230791E-01
   p   1
  5.550000000E-01  1.000000000E+00
   p   1
  1.725000000E-01  1.000000000E+00
   d   1
  1.654000000E+00  1.000000000E+00
   d   1
  4.690000000E-01  1.000000000E+00
   f   1
  1.093000000E+00  1.000000000E+00
 
[MO]
Sym=     1a  
Ene=   -15.6340
Spin= Alpha
Occup=    2.00000
   1         0.70768669
   2         0.00342777
   3        -0.00165280
   4         0.00194494
   5        -0.00000000
   6         0.00000000
   7         0.00000194
   8        -0.00000000
   9        -0.00000000
  10        -0.00000003
  11         0.00000000
  12        -0.00000000
  13        -0.00000009
  14        -0.00000000
  15        -0.00000000
  16        -0.00000000
  17        -0.00000000
  18        -0.00000000
  19        -0.00000000
  20         0.00000000
  21        -0.00000000
  22         0.00000000
  23         0.00000000
  24         0.00000000
  25         0.00000000
  26        -0.00000000
  27         0.00000000
  28        -0.00000000
  29         0.00000000
  30         0.00000000
  31         0.70768625
  32         0.00342777
  33        -0.00165280
  34         0.00194494
  35         0.00000000
  36        -0.00000000
  37        -0.00000194
  38         0.00000000
  39         0.00000000
  40         0.00000003
  41        -0.00000000
  42         0.00000000
  43         0.00000009
  44         0.00000000
  45         0.00000000
  46        -0.00000000
  47         0.00000000
  48        -0.00000000
  49         0.00000000
  50        -0.00000000
  51         0.00000000
  52        -0.00000000
  53         0.00000000
  54        -0.00000000
  55         0.00000000
  56        -0.00000000
  57        -0.00000000
  58         0.00000000
  59         0.00000000
  60        -0.00000000
Sym=     2a  
Ene=   -15.6340
Spin= Alpha
Occup=    2.00000
   1        -0.70768655
   2        -0.00342587
   3         0.00165282
   4        -0.00194493
   5         0.00000000
   6        -0.00000000
   7         0.00000194
   8         0.00000000
   9         0.00000000
  10        -0.00000003
  11        -0.00000000
  12         0.00000000
  13        -0.00000009
  14        -0.00000000
  15         0.00000000
  16        -0.00000000
  17        -0.00000000
  18         0.00000000
  19        -0.00000000
  20        -0.00000000
  21        -0.00000000
  22         0.00000000
  23        -0.00000000
  24         0.00000000
  25        -0.00000000
  26        -0.00000000
  27        -0.00000000
  28         0.00000000
  29         0.00000000
  30        -0.00000000
  31         0.70768700
  32         0.00342587
  33        -0.00165282
  34         0.00194493
  35        -0.00000000
  36         0.00000000
  37         0.00000194
  38        -0.00000000
  39        -0.00000000
  40        -0.00000003
  41         0.00000000
  42        -0.00000000
  43        -0.00000009
  44        -0.00000000
  45        -0.00000000
  46         0.00000000
  47        -0.00000000
  48         0.00000000
  49        -0.00000000
  50         0.00000000
  51        -0.00000000
  52        -0.00000000
  53        -0.00000000
  54        -0.00000000
  55         0.00000000
  56        -0.00000000
  57         0.00000000
  58        -0.00000000
  59         0.00000000
  60        -0.00000000
Sym=     3a  
Ene=    -0.9464
Spin= Alpha
Occup=    2.00000
   1        -0.00859525
   2         0.69836158
   3         0.00701956
   4         0.00403320
   5         0.00000000
   6         0.00000000
   7         0.00362818
   8         0.00000000
   9        -0.00000000
  10        -0.00006336
  11        -0.00000000
  12        -0.00000000
  13        -0.00016888
  14         0.00000000
  15         0.00000000
  16         0.00000000
  17         0.00000000
  18        -0.00000000
  19         0.00000000
  20        -0.00000000
  21        -0.00000000
  22        -0.00000000
  23         0.00000000
  24        -0.00000000
  25        -0.00000000
  26        -0.00000000
  27        -0.00000000
  28        -0.00000000
  29         0.00000000
  30        -0.00000000
  31        -0.00859525
  32         0.69836158
  33         0.00701956
  34         0.00403320
  35        -0.00000000
  36         0.00000000
  37        -0.00362818
  38        -0.00000000
  39        -0.00000000
  40         0.00006336
  41         0.00000000
  42        -0.00000000
  43         0.00016888
  44        -0.00000000
  45        -0.00000000
  46        -0.00000000
  47        -0.00000000
  48        -0.00000000
  49        -0.00000000
  50        -0.00000000
  51         0.00000000
  52         0.00000000
  53         0.00000000
  54        -0.00000000
  55         0.00000000
  56         0.00000000
  57         0.00000000
  58         0.00000000
  59        -0.00000000
  60        -0.00000000
Sym=     4a  
Ene=    -0.9443
Spin= Alpha
Occup=    2.00000
   1         0.00857295
   2        -0.69914291
   3        -0.00702734
   4        -0.00403780
   5        -0.00000000
   6        -0.00000000
   7         0.00356819
   8        -0.00000000
   9         0.00000000
  10        -0.00006231
  11         0.00000000
  12         0.00000000
  13        -0.00016609
  14         0.00000000
  15        -0.00000000
  16        -0.00000000
  17         0.00000000
  18         0.00000000
  19         0.00000000
  20         0.00000000
  21        -0.00000000
  22        -0.00000000
  23        -0.00000000
  24        -0.00000000
  25        -0.00000000
  26        -0.00000000
  27        -0.00000000
  28        -0.00000000
  29        -0.00000000
  30         0.00000000
  31        -0.00857295
  32         0.69914291
  33         0.00702734
  34         0.00403780
  35         0.00000000
  36        -0.00000000
  37         0.00356819
  38         0.00000000
  39         0.00000000
  40        -0.00006231
  41        -0.00000000
  42         0.00000000
  43        -0.00016609
  44         0.00000000
  45         0.00000000
  46         0.00000000
  47        -0.00000000
  48        -0.00000000
  49         0.00000000
  50        -0.00000000
  51        -0.00000000
  52         0.00000000
  53         0.00000000
  54         0.00000000
  55         0.00000000
  56         0.00000000
  57         0.00000000
  58        -0.00000000
  59        -0.00000000
  60         0.00000000
Sym=     5a  
Ene=    -0.5750
Spin= Alpha
Occup=    1.00000
   1        -0.00001890
   2         0.00561917
   3         0.00005636
   4         0.00003259
   5         0.00000000
   6        -0.00000000
   7        -0.74223163
   8        -0.00000000
   9         0.00000000
  10         0.01296115
  11         0.00000000
  12         0.00000000
  13         0.03454890
  14         0.00000000
  15        -0.00000000
  16        -0.00000000
  17        -0.00000000
  18        -0.00000000
  19        -0.00000000
  20        -0.00000000
  21         0.00000000
  22         0.00000000
  23         0.00000000
  24         0.00000000
  25         0.00000000
  26         0.00000000
  27        -0.00000000
  28         0.00000000
  29         0.00000000
  30         0.00000000
  31        -0.00001890
  32         0.00561917
  33         0.00005636
  34         0.00003259
  35         0.00000000
  36         0.00000000
  37         0.74223163
  38        -0.00000000
  39         0.00000000
  40        -0.01296115
  41        -0.00000000
  42         0.00000000
  43        -0.03454890
  44         0.00000000
  45         0.00000000
  46         0.00000000
  47         0.00000000
  48        -0.00000000
  49        -0.00000000
  50        -0.00000000
  51        -0.00000000
  52        -0.00000000
  53        -0.00000000
  54         0.00000000
  55         0.00000000
  56        -0.00000000
  57         0.00000000
  58         0.00000000
  59        -0.00000000
  60        -0.00000000
Sym=     6a  
Ene=    -0.5710
Spin= Alpha
Occup=    1.00000
   1         0.00000000
   2         0.00000000
   3        -0.00000000
   4        -0.00000000
   5         0.74478875
   6         0.00121763
   7        -0.00000000
   8        -0.01300581
   9        -0.00002126
  10        -0.00000000
  11        -0.03466793
  12        -0.00005668
  13        -0.00000000
  14        -0.00000000
  15         0.00000000
  16         0.00000000
  17        -0.00000000
  18         0.00000000
  19         0.00000000
  20        -0.00000000
  21         0.00000000
  22        -0.00000000
  23         0.00000000
  24        -0.00000000
  25         0.00000000
  26         0.00000000
  27         0.00000000
  28         0.00000000
  29         0.00000000
  30        -0.00000000
  31        -0.00000000
  32        -0.00000000
  33         0.00000000
  34         0.00000000
  35         0.74478875
  36         0.00121763
  37        -0.00000000
  38        -0.01300581
  39        -0.00002126
  40        -0.00000000
  41        -0.03466793
  42        -0.00005668
  43         0.00000000
  44        -0.00000000
  45         0.00000000
  46         0.00000000
  47         0.00000000
  48         0.00000000
  49         0.00000000
  50        -0.00000000
  51        -0.00000000
  52        -0.00000000
  53        -0.00000000
  54         0.00000000
  55         0.00000000
  56        -0.00000000
  57        -0.00000000
  58         0.00000000
  59         0.00000000
  60        -0.00000000
Sym=     7a  
Ene=    -0.5710
Spin= Alpha
Occup=    1.00000
   1         0.00000000
   2         0.00000000
   3        -0.00000000
   4        -0.00000000
   5        -0.00121763
   6         0.74478875
   7         0.00000000
   8         0.00002126
   9        -0.01300581
  10        -0.00000000
  11         0.00005668
  12        -0.03466793
  13        -0.00000000
  14        -0.00000000
  15        -0.00000000
  16         0.00000000
  17        -0.00000000
  18         0.00000000
  19         0.00000000
  20        -0.00000000
  21        -0.00000000
  22         0.00000000
  23         0.00000000
  24         0.00000000
  25        -0.00000000
  26         0.00000000
  27         0.00000000
  28        -0.00000000
  29         0.00000000
  30         0.00000000
  31         0.00000000
  32         0.00000000
  33        -0.00000000
  34        -0.00000000
  35        -0.00121763
  36         0.74478875
  37         0.00000000
  38         0.00002126
  39        -0.01300581
  40        -0.00000000
  41         0.00005668
  42        -0.03466793
  43        -0.00000000
  44        -0.00000000
  45         0.00000000
  46         0.00000000
  47         0.00000000
  48         0.00000000
  49         0.00000000
  50         0.00000000
  51        -0.00000000
  52        -0.00000000
  53        -0.00000000
  54         0.00000000
  55        -0.00000000
  56         0.00000000
  57        -0.00000000
  58        -0.00000000
  59         0.00000000
  60        -0.00000000
Sym=     8a  
Ene=    -0.5701
Spin= Alpha
Occup=    1.00000
   1         0.00000000
   2         0.00000000
   3        -0.00000000
   4        -0.00000000
   5        -0.74439132
   6         0.03844885
   7         0.00000000
   8         0.01299887
   9        -0.00067141
  10         0.00000000
  11         0.03464943
  12        -0.00178969
  13        -0.00000000
  14        -0.00000000
  15        -0.00000000
  16         0.00000000
  17         0.00000000
  18         0.00000000
  19         0.00000000
  20         0.00000000
  21        -0.00000000
  22        -0.00000000
  23         0.00000000
  24        -0.00000000
  25         0.00000000
  26        -0.00000000
  27        -0.00000000
  28        -0.00000000
  29         0.00000000
  30         0.00000000
  31         0.00000000
  32         0.00000000
  33        -0.00000000
  34        -0.00000000
  35         0.74439132
  36        -0.03844885
  37         0.00000000
  38        -0.01299887
  39         0.00067141
  40         0.00000000
  41        -0.03464943
  42         0.00178969
  43        -0.00000000
  44        -0.00000000
  45        -0.00000000
  46        -0.00000000
  47        -0.00000000
  48        -0.00000000
  49        -0.00000000
  50         0.00000000
  51         0.00000000
  52         0.00000000
  53         0.00000000
  54         0.00000000
  55         0.00000000
  56        -0.00000000
  57         0.00000000
  58        -0.00000000
  59         0.00000000
  60         0.00000000
Sym=     9a  
Ene=    -0.5701
Spin= Alpha
Occup=    1.00000
   1        -0.00000000
   2        -0.00000000
   3         0.00000000
   4         0.00000000
   5        -0.03844885
   6        -0.74439132
   7        -0.00000000
   8         0.00067141
   9         0.01299887
  10         0.00000000
  11         0.00178969
  12         0.03464943
  13         0.00000000
  14         0.00000000
  15        -0.00000000
  16         0.00000000
  17        -0.00000000
  18         0.00000000
  19        -0.00000000
  20        -0.00000000
  21         0.00000000
  22         0.00000000
  23         0.00000000
  24         0.00000000
  25        -0.00000000
  26        -0.00000000
  27         0.00000000
  28         0.00000000
  29         0.00000000
  30        -0.00000000
  31        -0.00000000
  32        -0.00000000
  33         0.00000000
  34         0.00000000
  35         0.03844885
  36         0.74439132
  37        -0.00000000
  38        -0.00067141
  39        -0.01299887
  40        -0.00000000
  41        -0.00178969
  42        -0.03464943
  43         0.00000000
  44         0.00000000
  45         0.00000000
  46         0.00000000
  47        -0.00000000
  48         0.00000000
  49         0.00000000
  50         0.00000000
  51        -0.00000000
  52        -0.00000000
  53        -0.00000000
  54        -0.00000000
  55        -0.00000000
  56         0.00000000
  57         0.00000000
  58         0.00000000
  59         0.00000000
  60        -0.00000000
Sym=    10a  
Ene=    -0.5662
Spin= Alpha
Occup=    1.00000
   1        -0.00001760
   2         0.00556272
   3         0.00005579
   4         0.00003226
   5        -0.00000000
   6        -0.00000000
   7         0.74796458
   8         0.00000000
   9         0.00000000
  10        -0.01306126
  11         0.00000000
  12         0.00000000
  13        -0.03481576
  14        -0.00000000
  15        -0.00000000
  16         0.00000000
  17         0.00000000
  18         0.00000000
  19         0.00000000
  20        -0.00000000
  21         0.00000000
  22        -0.00000000
  23        -0.00000000
  24        -0.00000000
  25        -0.00000000
  26        -0.00000000
  27        -0.00000000
  28        -0.00000000
  29         0.00000000
  30        -0.00000000
  31         0.00001760
  32        -0.00556272
  33        -0.00005579
  34        -0.00003226
  35         0.00000000
  36         0.00000000
  37         0.74796458
  38        -0.00000000
  39         0.00000000
  40        -0.01306126
  41        -0.00000000
  42        -0.00000000
  43        -0.03481576
  44        -0.00000000
  45         0.00000000
  46        -0.00000000
  47        -0.00000000
  48         0.00000000
  49         0.00000000
  50        -0.00000000
  51         0.00000000
  52         0.00000000
  53        -0.00000000
  54        -0.00000000
  55         0.00000000
  56         0.00000000
  57        -0.00000000
  58        -0.00000000
  59         0.00000000
  60         0.00000000
Sym=    11a  
Ene=     3.9420
Spin= Alpha
Occup=    0.00000
   1         0.05439202
   2         0.19823097
   3        -0.04681452
   4        -0.17579916
   5         0.00000000
   6        -0.00000000
   7        -0.10106956
   8        -0.00000000
   9         0.00000000
  10         0.79019818
  11         0.00000000
  12        -0.00000000
  13        -0.86226703
  14         0.00412472
  15        -0.00000000
  16        -0.00000000
  17         0.00000000
  18         0.00000000
  19        -0.02512570
  20         0.00000000
  21         0.00000000
  22        -0.00000000
  23        -0.00000000
  24        -0.00048853
  25        -0.00000000
  26         0.00000000
  27         0.00000000
  28        -0.00000000
  29        -0.00000000
  30         0.00000000
  31         0.05439202
  32         0.19823097
  33        -0.04681452
  34        -0.17579916
  35        -0.00000000
  36         0.00000000
  37         0.10106956
  38         0.00000000
  39        -0.00000000
  40        -0.79019818
  41        -0.00000000
  42         0.00000000
  43         0.86226703
  44         0.00412472
  45        -0.00000000
  46        -0.00000000
  47         0.00000000
  48        -0.00000000
  49        -0.02512570
  50         0.00000000
  51         0.00000000
  52         0.00000000
  53         0.00000000
  54         0.00048853
  55        -0.00000000
  56         0.00000000
  57        -0.00000000
  58        -0.00000000
  59        -0.00000000
  60         0.00000000
Sym=    12a  
Ene=     3.9975
Spin= Alpha
Occup=    0.00000
   1        -0.00000000
   2        -0.00000000
   3         0.00000000
   4         0.00000000
   5         0.00004465
   6         0.10046865
   7        -0.00000000
   8        -0.00035938
   9        -0.80874218
  10         0.00000000
  11         0.00040486
  12         0.91110188
  13        -0.00000000
  14        -0.00000000
  15        -0.00000036
  16        -0.00080954
  17         0.00000000
  18         0.00000000
  19        -0.00000000
  20         0.00000221
  21         0.00496584
  22        -0.00000000
  23        -0.00000000
  24         0.00000000
  25         0.00000005
  26         0.00011239
  27        -0.00000000
  28         0.00000000
  29        -0.00000000
  30        -0.00000000
  31         0.00000000
  32         0.00000000
  33        -0.00000000
  34        -0.00000000
  35         0.00004465
  36         0.10046865
  37        -0.00000000
  38        -0.00035938
  39        -0.80874218
  40         0.00000000
  41         0.00040486
  42         0.91110188
  43        -0.00000000
  44        -0.00000000
  45         0.00000036
  46         0.00080954
  47        -0.00000000
  48        -0.00000000
  49         0.00000000
  50        -0.00000221
  51        -0.00496584
  52         0.00000000
  53         0.00000000
  54        -0.00000000
  55         0.00000005
  56         0.00011239
  57         0.00000000
  58         0.00000000
  59        -0.00000000
  60        -0.00000000
Sym=    13a  
Ene=     3.9975
Spin= Alpha
Occup=    0.00000
   1        -0.00000000
   2        -0.00000000
   3         0.00000000
   4         0.00000000
   5         0.10046865
   6        -0.00004465
   7        -0.00000000
   8        -0.80874218
   9         0.00035938
  10         0.00000000
  11         0.91110188
  12        -0.00040486
  13        -0.00000000
  14         0.00000000
  15        -0.00080954
  16         0.00000036
  17         0.00000000
  18        -0.00000000
  19        -0.00000000
  20         0.00496584
  21        -0.00000221
  22        -0.00000000
  23         0.00000000
  24         0.00000000
  25         0.00011239
  26        -0.00000005
  27         0.00000000
  28        -0.00000000
  29         0.00000000
  30        -0.00000000
  31         0.00000000
  32         0.00000000
  33         0.00000000
  34        -0.00000000
  35         0.10046865
  36        -0.00004465
  37         0.00000000
  38        -0.80874218
  39         0.00035938
  40        -0.00000000
  41         0.91110188
  42        -0.00040486
  43         0.00000000
  44         0.00000000
  45         0.00080954
  46        -0.00000036
  47        -0.00000000
  48         0.00000000
  49        -0.00000000
  50        -0.00496584
  51         0.00000221
  52         0.00000000
  53        -0.00000000
  54        -0.00000000
  55         0.00011239
  56        -0.00000005
  57         0.00000000
  58        -0.00000000
  59         0.00000000
  60         0.00000000
Sym=    14a  
Ene=     4.0210
Spin= Alpha
Occup=    0.00000
   1         0.00000000
   2         0.00000000
   3        -0.00000000
   4        -0.00000000
   5        -0.06892973
   6        -0.07120585
   7         0.00000000
   8         0.56499282
   9         0.58364941
  10        -0.00000000
  11        -0.64245218
  12        -0.66366655
  13         0.00000000
  14        -0.00000000
  15        -0.00059648
  16        -0.00061617
  17        -0.00000000
  18         0.00000000
  19         0.00000000
  20         0.00369248
  21         0.00381441
  22        -0.00000000
  23        -0.00000000
  24         0.00000000
  25         0.00008064
  26         0.00008330
  27         0.00000000
  28         0.00000000
  29        -0.00000000
  30         0.00000000
  31         0.00000000
  32         0.00000000
  33        -0.00000000
  34        -0.00000000
  35         0.06892973
  36         0.07120585
  37        -0.00000000
  38        -0.56499282
  39        -0.58364941
  40         0.00000000
  41         0.64245218
  42         0.66366655
  43        -0.00000000
  44        -0.00000000
  45        -0.00059648
  46        -0.00061617
  47         0.00000000
  48        -0.00000000
  49        -0.00000000
  50         0.00369248
  51         0.00381441
  52         0.00000000
  53         0.00000000
  54        -0.00000000
  55        -0.00008064
  56        -0.00008330
  57        -0.00000000
  58         0.00000000
  59         0.00000000
  60        -0.00000000
Sym=    15a  
Ene=     4.0210
Spin= Alpha
Occup=    0.00000
   1        -0.00000000
   2        -0.00000000
   3         0.00000000
   4         0.00000000
   5        -0.07120585
   6         0.06892973
   7        -0.00000000
   8         0.58364941
   9        -0.56499282
  10         0.00000000
  11        -0.66366655
  12         0.64245218
  13        -0.00000000
  14         0.00000000
  15        -0.00061617
  16         0.00059648
  17        -0.00000000
  18        -0.00000000
  19        -0.00000000
  20         0.00381441
  21        -0.00369248
  22         0.00000000
  23         0.00000000
  24         0.00000000
  25         0.00008330
  26        -0.00008064
  27         0.00000000
  28        -0.00000000
  29        -0.00000000
  30        -0.00000000
  31        -0.00000000
  32        -0.00000000
  33         0.00000000
  34         0.00000000
  35         0.07120585
  36        -0.06892973
  37         0.00000000
  38        -0.58364941
  39         0.56499282
  40        -0.00000000
  41         0.66366655
  42        -0.64245218
  43         0.00000000
  44         0.00000000
  45        -0.00061617
  46         0.00059648
  47         0.00000000
  48         0.00000000
  49        -0.00000000
  50         0.00381441
  51        -0.00369248
  52        -0.00000000
  53        -0.00000000
  54        -0.00000000
  55        -0.00008330
  56         0.00008064
  57         0.00000000
  58         0.00000000
  59         0.00000000
  60         0.00000000
Sym=    16a  
Ene=     4.0844
Spin= Alpha
Occup=    0.00000
   1         0.09054354
   2         0.33040972
   3        -0.07559154
   4        -0.30107070
   5         0.00000000
   6         0.00000000
   7         0.09536790
   8        -0.00000000
   9         0.00000000
  10        -0.81592736
  11         0.00000000
  12        -0.00000000
  13         0.95758166
  14         0.00567739
  15        -0.00000000
  16        -0.00000000
  17        -0.00000000
  18        -0.00000000
  19        -0.03649710
  20         0.00000000
  21         0.00000000
  22         0.00000000
  23         0.00000000
  24        -0.00057302
  25         0.00000000
  26        -0.00000000
  27         0.00000000
  28        -0.00000000
  29        -0.00000000
  30         0.00000000
  31        -0.09054354
  32        -0.33040972
  33         0.07559154
  34         0.30107070
  35        -0.00000000
  36         0.00000000
  37         0.09536790
  38         0.00000000
  39        -0.00000000
  40        -0.81592736
  41        -0.00000000
  42         0.00000000
  43         0.95758166
  44        -0.00567739
  45        -0.00000000
  46        -0.00000000
  47         0.00000000
  48        -0.00000000
  49         0.03649710
  50         0.00000000
  51         0.00000000
  52        -0.00000000
  53         0.00000000
  54        -0.00057302
  55        -0.00000000
  56         0.00000000
  57         0.00000000
  58         0.00000000
  59         0.00000000
  60        -0.00000000
Sym=    17a  
Ene=     4.3770
Spin= Alpha
Occup=    0.00000
   1        -0.62897556
   2        -2.30568138
   3         0.49788709
   4         2.18927642
   5         0.00000000
   6        -0.00000000
   7        -0.00646221
   8        -0.00000000
   9         0.00000000
  10         0.08361910
  11         0.00000000
  12        -0.00000000
  13        -0.10789744
  14        -0.00354685
  15        -0.00000000
  16        -0.00000000
  17         0.00000000
  18        -0.00000000
  19         0.02580516
  20         0.00000000
  21         0.00000000
  22        -0.00000000
  23         0.00000000
  24         0.00014738
  25         0.00000000
  26        -0.00000000
  27         0.00000000
  28         0.00000000
  29         0.00000000
  30         0.00000000
  31        -0.62897556
  32        -2.30568138
  33         0.49788709
  34         2.18927642
  35        -0.00000000
  36        -0.00000000
  37         0.00646221
  38         0.00000000
  39        -0.00000000
  40        -0.08361910
  41        -0.00000000
  42         0.00000000
  43         0.10789744
  44        -0.00354685
  45        -0.00000000
  46        -0.00000000
  47         0.00000000
  48        -0.00000000
  49         0.02580516
  50        -0.00000000
  51         0.00000000
  52        -0.00000000
  53         0.00000000
  54        -0.00014738
  55         0.00000000
  56        -0.00000000
  57         0.00000000
  58         0.00000000
  59        -0.00000000
  60        -0.00000000
Sym=    18a  
Ene=     4.4316
Spin= Alpha
Occup=    0.00000
   1        -0.62765267
   2        -2.30379140
   3         0.49289785
   4         2.19853995
   5        -0.00000000
   6        -0.00000000
   7         0.00923892
   8         0.00000000
   9         0.00000000
  10        -0.12796776
  11        -0.00000000
  12        -0.00000000
  13         0.16963348
  14         0.01060259
  15        -0.00000000
  16         0.00000000
  17         0.00000000
  18         0.00000000
  19        -0.07994835
  20         0.00000000
  21        -0.00000000
  22        -0.00000000
  23        -0.00000000
  24        -0.00037969
  25        -0.00000000
  26        -0.00000000
  27         0.00000000
  28        -0.00000000
  29        -0.00000000
  30         0.00000000
  31         0.62765267
  32         2.30379140
  33        -0.49289785
  34        -2.19853995
  35         0.00000000
  36        -0.00000000
  37         0.00923892
  38        -0.00000000
  39         0.00000000
  40        -0.12796776
  41         0.00000000
  42        -0.00000000
  43         0.16963348
  44        -0.01060259
  45         0.00000000
  46         0.00000000
  47        -0.00000000
  48        -0.00000000
  49         0.07994835
  50         0.00000000
  51        -0.00000000
  52         0.00000000
  53         0.00000000
  54        -0.00037969
  55        -0.00000000
  56         0.00000000
  57         0.00000000
  58        -0.00000000
  59        -0.00000000
  60         0.00000000
Sym=    19a  
Ene=     4.5798
Spin= Alpha
Occup=    0.00000
   1         0.00000000
   2         0.00000000
   3        -0.00000000
   4        -0.00000000
   5         0.00024374
   6        -0.00000085
   7        -0.00000000
   8        -0.00614016