[Molden Format]
[N_Atoms]
                    2
[Atoms] (AU)
N1          1      7           0.00000000      0.00000000      0.00000000
N2          2      7           0.00000000      0.00000000      7.55890450
[5D]
[7F]
[Charge] (Mulliken)
   2.6408891962148573E-008
  -2.6409015418948911E-008
[GTO] (AU)
   1
   s  10
  1.142000000E+04  5.229996559E-04
  1.712000000E+03  4.044997339E-03
  3.893000000E+02  2.077498633E-02
  1.100000000E+02  8.072694689E-02
  3.557000000E+01  2.330738467E-01
  1.254000000E+01  4.335007148E-01
  4.644000000E+00  3.474717714E-01
  1.293000000E+00  4.126197285E-02
  5.118000000E-01 -8.507994403E-03
  1.787000000E-01  2.383998432E-03
   s  10
  1.142000000E+04 -1.149999544E-04
  1.712000000E+03 -8.949996452E-04
  3.893000000E+02 -4.623998167E-03
  1.100000000E+02 -1.852799265E-02
  3.557000000E+01 -5.733897727E-02
  1.254000000E+01 -1.320759476E-01
  4.644000000E+00 -1.725099316E-01
  1.293000000E+00  1.518139398E-01
  5.118000000E-01  5.999437621E-01
  1.787000000E-01  3.874618464E-01
   s   1
  1.293000000E+00  1.000000000E+00
   s   1
  1.787000000E-01  1.000000000E+00
   p   5
  2.663000000E+01  1.467000345E-02
  5.948000000E+00  9.176402155E-02
  1.742000000E+00  2.986830701E-01
  5.550000000E-01  4.984871171E-01
  1.725000000E-01  3.370230791E-01
   p   1
  5.550000000E-01  1.000000000E+00
   p   1
  1.725000000E-01  1.000000000E+00
   d   1
  1.654000000E+00  1.000000000E+00
   d   1
  4.690000000E-01  1.000000000E+00
   f   1
  1.093000000E+00  1.000000000E+00
 
   2
   s  10
  1.142000000E+04  5.229996559E-04
  1.712000000E+03  4.044997339E-03
  3.893000000E+02  2.077498633E-02
  1.100000000E+02  8.072694689E-02
  3.557000000E+01  2.330738467E-01
  1.254000000E+01  4.335007148E-01
  4.644000000E+00  3.474717714E-01
  1.293000000E+00  4.126197285E-02
  5.118000000E-01 -8.507994403E-03
  1.787000000E-01  2.383998432E-03
   s  10
  1.142000000E+04 -1.149999544E-04
  1.712000000E+03 -8.949996452E-04
  3.893000000E+02 -4.623998167E-03
  1.100000000E+02 -1.852799265E-02
  3.557000000E+01 -5.733897727E-02
  1.254000000E+01 -1.320759476E-01
  4.644000000E+00 -1.725099316E-01
  1.293000000E+00  1.518139398E-01
  5.118000000E-01  5.999437621E-01
  1.787000000E-01  3.874618464E-01
   s   1
  1.293000000E+00  1.000000000E+00
   s   1
  1.787000000E-01  1.000000000E+00
   p   5
  2.663000000E+01  1.467000345E-02
  5.948000000E+00  9.176402155E-02
  1.742000000E+00  2.986830701E-01
  5.550000000E-01  4.984871171E-01
  1.725000000E-01  3.370230791E-01
   p   1
  5.550000000E-01  1.000000000E+00
   p   1
  1.725000000E-01  1.000000000E+00
   d   1
  1.654000000E+00  1.000000000E+00
   d   1
  4.690000000E-01  1.000000000E+00
   f   1
  1.093000000E+00  1.000000000E+00
 
[MO]
Sym=     1a  
Ene=     0.0000
Spin= Alpha
Occup=    0.00000
   1         0.58856861
   2         0.00024473
   3        -0.00082742
   4        -0.00012635
   5         0.00000000
   6        -0.00000000
   7         0.00029639
   8        -0.00000000
   9         0.00000000
  10        -0.00016631
  11         0.00000000
  12         0.00000000
  13        -0.00009736
  14        -0.00000524
  15         0.00000000
  16        -0.00000000
  17        -0.00000000
  18         0.00000000
  19        -0.00000169
  20         0.00000000
  21        -0.00000000
  22        -0.00000000
  23         0.00000000
  24         0.00000067
  25        -0.00000000
  26        -0.00000000
  27         0.00000000
  28        -0.00000000
  29         0.00000000
  30         0.00000000
  31         0.80944181
  32         0.00032135
  33        -0.00113362
  34        -0.00016634
  35         0.00000000
  36        -0.00000000
  37        -0.00040972
  38        -0.00000000
  39         0.00000000
  40         0.00025988
  41         0.00000000
  42         0.00000000
  43         0.00011638
  44        -0.00000867
  45         0.00000000
  46        -0.00000000
  47         0.00000000
  48        -0.00000000
  49        -0.00000171
  50         0.00000000
  51        -0.00000000
  52         0.00000000
  53        -0.00000000
  54        -0.00000087
  55         0.00000000
  56         0.00000000
  57        -0.00000000
  58        -0.00000000
  59         0.00000000
  60        -0.00000000
Sym=     2a  
Ene=     0.0000
Spin= Alpha
Occup=    0.00000
   1        -0.80941318
   2        -0.00023594
   3         0.00109675
   4         0.00011428
   5         0.00000000
   6         0.00000000
   7        -0.00041465
   8         0.00000000
   9        -0.00000000
  10         0.00033019
  11         0.00000000
  12        -0.00000000
  13         0.00007674
  14         0.00001089
  15         0.00000000
  16         0.00000000
  17         0.00000000
  18        -0.00000000
  19         0.00000075
  20        -0.00000000
  21         0.00000000
  22         0.00000000
  23        -0.00000000
  24        -0.00000079
  25        -0.00000000
  26        -0.00000000
  27        -0.00000000
  28         0.00000000
  29        -0.00000000
  30         0.00000000
  31         0.58854252
  32         0.00016023
  33        -0.00079424
  34        -0.00007746
  35         0.00000000
  36        -0.00000000
  37        -0.00030317
  38        -0.00000000
  39         0.00000000
  40         0.00026298
  41         0.00000000
  42         0.00000000
  43         0.00004288
  44        -0.00000899
  45         0.00000000
  46        -0.00000000
  47         0.00000000
  48        -0.00000000
  49        -0.00000008
  50         0.00000000
  51        -0.00000000
  52         0.00000000
  53        -0.00000000
  54        -0.00000054
  55         0.00000000
  56         0.00000000
  57        -0.00000000
  58        -0.00000000
  59        -0.00000000
  60        -0.00000000
Sym=     3a  
Ene=     0.0000
Spin= Alpha
Occup=    0.00000
   1         0.00076687
   2         0.72736604
   3         0.00815541
   4        -0.02927901
   5         0.00000000
   6         0.00000000
   7         0.00146223
   8        -0.00000000
   9        -0.00000000
  10        -0.00072209
  11         0.00000000
  12         0.00000000
  13         0.00320523
  14        -0.00010065
  15         0.00000000
  16        -0.00000000
  17        -0.00000000
  18         0.00000000
  19         0.00050251
  20         0.00000000
  21        -0.00000000
  22        -0.00000000
  23         0.00000000
  24         0.00003598
  25         0.00000000
  26        -0.00000000
  27         0.00000000
  28        -0.00000000
  29         0.00000000
  30         0.00000000
  31         0.00077478
  32         0.72764152
  33         0.00814862
  34        -0.02930588
  35         0.00000000
  36         0.00000000
  37        -0.00145755
  38        -0.00000000
  39        -0.00000000
  40         0.00072179
  41         0.00000000
  42         0.00000000
  43        -0.00320473
  44        -0.00010082
  45         0.00000000
  46        -0.00000000
  47         0.00000000
  48        -0.00000000
  49         0.00050240
  50         0.00000000
  51        -0.00000000
  52         0.00000000
  53        -0.00000000
  54        -0.00003597
  55         0.00000000
  56         0.00000000
  57        -0.00000000
  58         0.00000000
  59         0.00000000
  60         0.00000000
Sym=     4a  
Ene=     0.0000
Spin= Alpha
Occup=    0.00000
   1        -0.00232269
   2        -0.73510255
   3        -0.00753739
   4         0.03661000
   5         0.00000000
   6         0.00000000
   7         0.01303154
   8        -0.00000000
   9         0.00000000
  10        -0.00062384
  11         0.00000000
  12         0.00000000
  13         0.00143874
  14         0.00001481
  15        -0.00000000
  16         0.00000000
  17         0.00000000
  18        -0.00000000
  19         0.00061422
  20        -0.00000000
  21         0.00000000
  22         0.00000000
  23        -0.00000000
  24         0.00002873
  25         0.00000000
  26         0.00000000
  27        -0.00000000
  28        -0.00000000
  29        -0.00000000
  30        -0.00000000
  31         0.00232962
  32         0.73486785
  33         0.00752500
  34        -0.03661409
  35         0.00000000
  36         0.00000000
  37         0.01303200
  38        -0.00000000
  39        -0.00000000
  40        -0.00062376
  41         0.00000000
  42         0.00000000
  43         0.00143979
  44        -0.00001494
  45         0.00000000
  46        -0.00000000
  47         0.00000000
  48        -0.00000000
  49        -0.00061432
  50         0.00000000
  51        -0.00000000
  52         0.00000000
  53        -0.00000000
  54         0.00002875
  55         0.00000000
  56         0.00000000
  57        -0.00000000
  58         0.00000000
  59         0.00000000
  60         0.00000000
Sym=     5a  
Ene=     0.0000
Spin= Alpha
Occup=    0.00000
   1         0.00661763
   2         0.03686403
   3        -0.00239288
   4        -0.03209165
   5        -0.00000000
   6         0.00000000
   7        -0.63678594
   8         0.00000000
   9        -0.00000000
  10         0.02396799
  11        -0.00000000
  12        -0.00000000
  13        -0.11080766
  14         0.00004025
  15        -0.00000000
  16         0.00000000
  17         0.00000000
  18        -0.00000000
  19        -0.00633203
  20        -0.00000000
  21         0.00000000
  22        -0.00000000
  23         0.00000000
  24        -0.00031028
  25         0.00000000
  26        -0.00000000
  27        -0.00000000
  28         0.00000000
  29        -0.00000000
  30        -0.00000000
  31         0.00661849
  32         0.03686618
  33        -0.00239383
  34        -0.03209385
  35         0.00000000
  36        -0.00000000
  37         0.63678363
  38         0.00000000
  39         0.00000000
  40        -0.02396269
  41        -0.00000000
  42        -0.00000000
  43         0.11081313
  44         0.00004030
  45        -0.00000000
  46        -0.00000000
  47        -0.00000000
  48         0.00000000
  49        -0.00633206
  50         0.00000000
  51        -0.00000000
  52        -0.00000000
  53        -0.00000000
  54         0.00030995
  55        -0.00000000
  56         0.00000000
  57        -0.00000000
  58         0.00000000
  59        -0.00000000
  60        -0.00000000
Sym=     6a  
Ene=     0.0000
Spin= Alpha
Occup=    0.00000
   1         0.00000000
   2         0.00000000
   3        -0.00000000
   4        -0.00000000
   5         0.00676725
   6         0.64934864
   7        -0.00000000
   8        -0.00019144
   9        -0.01836998
  10         0.00000000
  11         0.00099531
  12         0.09550406
  13        -0.00000000
  14         0.00000000
  15         0.00000191
  16         0.00018316
  17         0.00000000
  18        -0.00000000
  19         0.00000000
  20         0.00003499
  21         0.00335696
  22         0.00000000
  23        -0.00000000
  24        -0.00000000
  25         0.00000171
  26         0.00016409
  27        -0.00000000
  28         0.00000000
  29         0.00000000
  30         0.00000000
  31         0.00000000
  32        -0.00000000
  33        -0.00000000
  34        -0.00000000
  35         0.00676726
  36         0.64934795
  37        -0.00000000
  38        -0.00019148
  39        -0.01837324
  40        -0.00000000
  41         0.00099530
  42         0.09550307
  43         0.00000000
  44         0.00000000
  45        -0.00000191
  46        -0.00018316
  47         0.00000000
  48        -0.00000000
  49        -0.00000000
  50        -0.00003498
  51        -0.00335691
  52         0.00000000
  53        -0.00000000
  54        -0.00000000
  55         0.00000171
  56         0.00016411
  57        -0.00000000
  58         0.00000000
  59         0.00000000
  60        -0.00000001
Sym=     7a  
Ene=     0.0000
Spin= Alpha
Occup=    0.00000
   1        -0.00000000
   2        -0.00000000
   3         0.00000000
   4         0.00000000
   5         0.64934809
   6        -0.00676726
   7         0.00000000
   8        -0.01836997
   9         0.00019144
  10        -0.00000000
  11         0.09550402
  12        -0.00099531
  13         0.00000000
  14        -0.00000000
  15         0.00018316
  16        -0.00000191
  17        -0.00000000
  18        -0.00000000
  19        -0.00000000
  20         0.00335697
  21        -0.00003498
  22        -0.00000000
  23        -0.00000000
  24         0.00000000
  25         0.00016409
  26        -0.00000171
  27         0.00000000
  28         0.00000000
  29         0.00000000
  30        -0.00000000
  31        -0.00000000
  32        -0.00000000
  33         0.00000000
  34         0.00000000
  35         0.64934850
  36        -0.00676725
  37         0.00000000
  38        -0.01837325
  39         0.00019148
  40         0.00000000
  41         0.09550311
  42        -0.00099530
  43        -0.00000000
  44        -0.00000000
  45        -0.00018316
  46         0.00000191
  47        -0.00000000
  48        -0.00000000
  49         0.00000000
  50        -0.00335691
  51         0.00003498
  52        -0.00000000
  53        -0.00000000
  54         0.00000000
  55         0.00016411
  56        -0.00000171
  57         0.00000000
  58         0.00000000
  59         0.00000001
  60         0.00000000
Sym=     8a  
Ene=     0.0000
Spin= Alpha
Occup=    0.00000
   1        -0.00000000
   2        -0.00000000
   3         0.00000000
   4         0.00000000
   5        -0.00689505
   6        -0.65070673
   7        -0.00000001
   8         0.00018054
   9         0.01703839
  10        -0.00000000
  11        -0.00099238
  12        -0.09365417
  13         0.00000000
  14        -0.00000000
  15        -0.00000331
  16        -0.00031265
  17         0.00000000
  18        -0.00000000
  19         0.00000000
  20         0.00003549
  21         0.00334975
  22         0.00000000
  23        -0.00000000
  24        -0.00000000
  25         0.00000118
  26         0.00011184
  27        -0.00000000
  28         0.00000000
  29         0.00000000
  30         0.00000002
  31        -0.00000000
  32        -0.00000000
  33         0.00000000
  34         0.00000000
  35         0.00689512
  36         0.65071502
  37         0.00000001
  38        -0.00018058
  39        -0.01704194
  40         0.00000000
  41         0.00099238
  42         0.09365367
  43        -0.00000000
  44        -0.00000000
  45        -0.00000331
  46        -0.00031266
  47        -0.00000000
  48         0.00000000
  49         0.00000000
  50         0.00003549
  51         0.00334976
  52        -0.00000000
  53         0.00000000
  54         0.00000000
  55        -0.00000119
  56        -0.00011186
  57         0.00000000
  58        -0.00000000
  59         0.00000000
  60         0.00000001
Sym=     9a  
Ene=     0.0000
Spin= Alpha
Occup=    0.00000
   1         0.00000000
   2         0.00000000
   3        -0.00000000
   4        -0.00000000
   5        -0.65070776
   6         0.00689504
   7         0.00000000
   8         0.01703838
   9        -0.00018054
  10         0.00000000
  11        -0.09365360
  12         0.00099238
  13        -0.00000000
  14         0.00000000
  15        -0.00031265
  16         0.00000331
  17        -0.00000000
  18        -0.00000000
  19        -0.00000000
  20         0.00334975
  21        -0.00003549
  22        -0.00000000
  23        -0.00000000
  24         0.00000000
  25         0.00011183
  26        -0.00000119
  27         0.00000000
  28         0.00000000
  29         0.00000002
  30        -0.00000000
  31         0.00000000
  32         0.00000000
  33        -0.00000000
  34        -0.00000000
  35         0.65071399
  36        -0.00689513
  37        -0.00000000
  38        -0.01704194
  39         0.00018058
  40        -0.00000000
  41         0.09365423
  42        -0.00099238
  43         0.00000000
  44         0.00000000
  45        -0.00031265
  46         0.00000331
  47         0.00000000
  48         0.00000000
  49        -0.00000000
  50         0.00334976
  51        -0.00003549
  52         0.00000000
  53         0.00000000
  54        -0.00000000
  55        -0.00011187
  56         0.00000119
  57        -0.00000000
  58        -0.00000000
  59         0.00000003
  60        -0.00000000
Sym=    10a  
Ene=     0.0000
Spin= Alpha
Occup=    0.00000
   1         0.00425063
   2         0.03508921
   3        -0.00193947
   4        -0.01957484
   5        -0.00000000
   6         0.00000001
   7         0.65535865
   8        -0.00000000
   9         0.00000000
  10        -0.01405636
  11         0.00000000
  12        -0.00000000
  13         0.08977760
  14         0.00056132
  15         0.00000000
  16         0.00000000
  17        -0.00000000
  18         0.00000000
  19        -0.00521807
  20         0.00000000
  21         0.00000000
  22         0.00000000
  23        -0.00000000
  24        -0.00020561
  25         0.00000000
  26        -0.00000000
  27        -0.00000002
  28         0.00000000
  29         0.00000000
  30        -0.00000000
  31        -0.00425131
  32        -0.03509144
  33         0.00194017
  34         0.01957679
  35        -0.00000000
  36         0.00000000
  37         0.65534412
  38        -0.00000000
  39         0.00000000
  40        -0.01405130
  41         0.00000000
  42        -0.00000000
  43         0.08978103
  44        -0.00056134
  45         0.00000000
  46         0.00000000
  47        -0.00000000
  48         0.00000000
  49         0.00521832
  50         0.00000000
  51         0.00000000
  52         0.00000000
  53        -0.00000000
  54        -0.00020606
  55         0.00000000
  56        -0.00000000
  57         0.00000002
  58        -0.00000000
  59         0.00000000
  60         0.00000000
Sym=    11a  
Ene=     0.0000
Spin= Alpha
Occup=    0.00000
   1         0.10916007
   2         0.52524202
   3        -0.03628273
   4        -0.55074229
   5        -0.00000000
   6         0.00000000
   7         0.46969548
   8        -0.00000000
   9         0.00000000
  10         0.33237191
  11         0.00000000
  12        -0.00000001
  13        -0.91463340
  14         0.00197694
  15         0.00000000
  16        -0.00000000
  17        -0.00000001
  18         0.00000000
  19        -0.02005743
  20        -0.00000000
  21         0.00000000
  22         0.00000001
  23        -0.00000000
  24        -0.00054035
  25         0.00000000
  26        -0.00000000
  27        -0.00000001
  28         0.00000000
  29         0.00000000
  30         0.00000000
  31         0.10919529
  32         0.52538887
  33        -0.03630326
  34        -0.55089203
  35         0.00000000
  36        -0.00000000
  37        -0.46967020
  38         0.00000000
  39        -0.00000000
  40        -0.33235550
  41        -0.00000000
  42         0.00000001
  43         0.91458025
  44         0.00197705
  45         0.00000000
  46        -0.00000000
  47         0.00000001
  48        -0.00000000
  49        -0.02006001
  50        -0.00000000
  51         0.00000000
  52        -0.00000002
  53         0.00000000
  54         0.00054042
  55        -0.00000000
  56         0.00000000
  57        -0.00000001
  58         0.00000000
  59        -0.00000000
  60        -0.00000000
Sym=    12a  
Ene=     0.0000
Spin= Alpha
Occup=    0.00000
   1         0.00000000
   2         0.00000001
   3        -0.00000000
   4        -0.00000001
   5        -0.00268495
   6        -0.49464599
   7        -0.00000000
   8        -0.00189220
   9        -0.34859907
  10        -0.00000000
  11         0.00548851
  12         1.01114350
  13         0.00000001
  14         0.00000000
  15        -0.00000254
  16        -0.00046844
  17         0.00000000
  18        -0.00000000
  19        -0.00000000
  20         0.00001758
  21         0.00323945
  22        -0.00000000
  23         0.00000000
  24        -0.00000000
  25         0.00000056
  26         0.00010378
  27        -0.00000000
  28         0.00000000
  29         0.00000000
  30        -0.00000000
  31        -0.00000000
  32        -0.00000001
  33         0.00000000
  34         0.00000001
  35        -0.00268528
  36        -0.49470915
  37        -0.00000000
  38        -0.00189241
  39        -0.34863888
  40        -0.00000000
  41         0.00548916
  42         1.01126866
  43         0.00000001
  44        -0.00000000
  45         0.00000254
  46         0.00046842
  47         0.00000000
  48        -0.00000000
  49         0.00000000
  50        -0.00001758
  51        -0.00323882
  52         0.00000000
  53        -0.00000000
  54        -0.00000000
  55         0.00000056
  56         0.00010386
  57        -0.00000000
  58         0.00000000
  59        -0.00000000
  60        -0.00000002
Sym=    13a  
Ene=     0.0000
Spin= Alpha
Occup=    0.00000
   1         0.00000000
   2         0.00000000
   3        -0.00000000
   4        -0.00000000
   5         0.49464773
   6        -0.00268494
   7        -0.00000000
   8         0.34860030
   9        -0.00189220
  10        -0.00000000
  11        -1.01114762
  12         0.00548850
  13         0.00000000
  14         0.00000000
  15         0.00046844
  16        -0.00000254
  17         0.00000000
  18         0.00000000
  19        -0.00000000
  20        -0.00323943
  21         0.00001758
  22        -0.00000000
  23        -0.00000000
  24        -0.00000000
  25        -0.00010377
  26         0.00000056
  27        -0.00000000
  28        -0.00000000
  29        -0.00000002
  30         0.00000000
  31        -0.00000000
  32        -0.00000000
  33         0.00000000
  34         0.00000000
  35         0.49470741
  36        -0.00268528
  37        -0.00000000
  38         0.34863765
  39        -0.00189241
  40        -0.00000000
  41        -1.01126453
  42         0.00548917
  43         0.00000000
  44        -0.00000000
  45        -0.00046842
  46         0.00000254
  47         0.00000000
  48         0.00000000
  49         0.00000000
  50         0.00323885
  51        -0.00001758
  52         0.00000000
  53         0.00000000
  54        -0.00000000
  55        -0.00010387
  56         0.00000056
  57        -0.00000000
  58        -0.00000000
  59         0.00000001
  60        -0.00000000
Sym=    14a  
Ene=     0.0000
Spin= Alpha
Occup=    0.00000
   1        -0.00000000
   2        -0.00000001
   3         0.00000000
   4         0.00000001
   5         0.00262570
   6         0.50064649
   7        -0.00000000
   8         0.00181030
   9         0.34517189
  10        -0.00000000
  11        -0.00536662
  12        -1.02326055
  13         0.00000001
  14        -0.00000000
  15        -0.00000146
  16        -0.00027810
  17        -0.00000000
  18         0.00000000
  19         0.00000000
  20         0.00002539
  21         0.00484169
  22         0.00000000
  23        -0.00000000
  24         0.00000000
  25         0.00000078
  26         0.00014880
  27         0.00000000
  28        -0.00000000
  29        -0.00000000
  30         0.00000001
  31        -0.00000000
  32        -0.00000001
  33         0.00000000
  34         0.00000001
  35        -0.00262542
  36        -0.50058857
  37         0.00000000
  38        -0.00181008
  39        -0.34512728
  40         0.00000000
  41         0.00536601
  42         1.02313763
  43        -0.00000001
  44        -0.00000000
  45        -0.00000146
  46        -0.00027816
  47         0.00000000
  48        -0.00000000
  49         0.00000000
  50         0.00002540
  51         0.00484212
  52         0.00000000
  53        -0.00000000
  54        -0.00000000
  55        -0.00000078
  56        -0.00014887
  57        -0.00000000
  58         0.00000000
  59        -0.00000000
  60        -0.00000001
Sym=    15a  
Ene=     0.0000
Spin= Alpha
Occup=    0.00000
   1        -0.00000000
   2        -0.00000000
   3         0.00000000
   4         0.00000000
   5        -0.50064471
   6         0.00262571
   7        -0.00000000
   8        -0.34517037
   9         0.00181030
  10        -0.00000000
  11         1.02325657
  12        -0.00536663
  13         0.00000000
  14        -0.00000000
  15         0.00027810
  16        -0.00000146
  17        -0.00000000
  18        -0.00000000
  19         0.00000000
  20        -0.00484170
  21         0.00002539
  22         0.00000000
  23         0.00000000
  24         0.00000000
  25        -0.00014880
  26         0.00000078
  27         0.00000000
  28         0.00000000
  29         0.00000002
  30         0.00000000
  31        -0.00000000
  32        -0.00000000
  33         0.00000000
  34         0.00000000
  35         0.50059035
  36        -0.00262541
  37         0.00000000
  38         0.34512880
  39        -0.00181007
  40         0.00000000
  41        -1.02314160
  42         0.00536600
  43        -0.00000000
  44        -0.00000000
  45         0.00027816
  46        -0.00000146
  47         0.00000000
  48         0.00000000
  49         0.00000000
  50        -0.00484211
  51         0.00002540
  52         0.00000000
  53         0.00000000
  54        -0.00000000
  55         0.00014887
  56        -0.00000078
  57        -0.00000000
  58        -0.00000000
  59         0.00000002
  60        -0.00000000
Sym=    16a  
Ene=     0.0000
Spin= Alpha
Occup=    0.00000
   1         0.24560561
   2         1.18830807
   3        -0.07066938
   4        -1.27651617
   5        -0.00000000
   6         0.00000000
   7        -0.36259552
   8        -0.00000000
   9         0.00000000
  10        -0.24980452
  11         0.00000000
  12        -0.00000001
  13         0.74883150
  14         0.00084104
  15         0.00000000
  16        -0.00000000
  17        -0.00000002
  18         0.00000000
  19        -0.01166738
  20        -0.00000000
  21         0.00000000
  22         0.00000005
  23        -0.00000000
  24        -0.00030496
  25        -0.00000000
  26         0.00000000
  27         0.00000001
  28        -0.00000000
  29        -0.00000000
  30         0.00000000
  31        -0.24603663
  32        -1.19033958
  33         0.07081580
  34         1.27868518
  35        -0.00000000
  36         0.00000000
  37        -0.36282820
  38        -0.00000000
  39         0.00000000
  40        -0.24996714
  41         0.00000000
  42        -0.00000001
  43         0.74931668
  44        -0.00084093
  45        -0.00000000
  46         0.00000000
  47        -0.00000002
  48         0.00000000
  49         0.01167391
  50         0.00000000
  51        -0.00000000
  52         0.00000004
  53        -0.00000000
  54        -0.00030524
  55        -0.00000000
  56         0.00000000
  57        -0.00000001
  58         0.00000000
  59        -0.00000000
  60        -0.00000000
Sym=    17a  
Ene=     0.0000
Spin= Alpha
Occup=    0.00000
   1        -0.33690521
   2        -1.63238125
   3         0.09502664
   4         1.75800653
   5         0.00000000
   6        -0.00000000
   7         0.15583396
   8         0.00000000
   9        -0.00000000
  10         0.10419763
  11        -0.00000000
  12         0.00000000
  13        -0.32548084
  14        -0.00015384
  15        -0.00000000
  16         0.00000000
  17         0.00000002
  18        -0.00000000
  19         0.00273749
  20         0.00000000
  21        -0.00000000
  22        -0.00000007
  23         0.00000000
  24         0.00003423
  25         0.00000000
  26        -0.00000000
  27        -0.00000001
  28         0.00000000
  29         0.00000000
  30        -0.00000000
  31        -0.33669374
  32        -1.63128452
  33         0.09499721
  34         1.75680687
  35        -0.00000000
  36         0.00000000
  37        -0.15528606
  38        -0.00000000
  39         0.00000000
  40        -0.10382850
  41         0.00000000
  42        -0.00000000
  43         0.32434962
  44        -0.00015197
  45        -0.00000000
  46         0.00000000
  47        -0.00000002
  48         0.00000000
  49         0.00272177
  50         0.00000000
  51        -0.00000000
  52         0.00000006
  53        -0.00000000
  54        -0.00003384
  55        -0.00000000
  56         0.00000000
  57         0.00000000
  58         0.00000000
  59        -0.00000000
  60        -0.00000000
Sym=    18a  
Ene=     0.0000
Spin= Alpha
Occup=    0.00000
   1        -0.25200187
   2        -1.23659131
   3         0.06078714
   4         1.35049882
   5        -0.00000000
   6         0.00000000
   7        -0.36890124
   8        -0.00000000
   9         0.00000000
  10        -0.22913087
  11         0.00000000
  12        -0.00000000
  13         0.76275558
  14         0.00248649
  15        -0.00000000
  16         0.00000000
  17         0.00000002
  18        -0.00000000
  19        -0.03330314
  20         0.00000000
  21        -0.00000000
  22        -0.00000006
  23         0.00000000
  24        -0.00066078
  25        -0.00000000
  26         0.00000000
  27         0.00000000
  28        -0.00000000
  29        -0.00000000
  30        -0.00000000
  31         0.25193478
  32         1.23620801
  33        -0.06079400
  34        -1.35006554
  35        -0.00000000
  36         0.00000000
  37        -0.36893182
  38        -0.00000000
  39         0.00000000
  40        -0.22915451
  41         0.00000000
  42        -0.00000000
  43         0.76282207
  44        -0.00248676
  45         0.00000000
  46        -0.00000000
  47         0.00000002
  48        -0.00000000
  49         0.03329926
  50        -0.00000000
  51         0.00000000
  52        -0.00000006
  53         0.00000000
  54        -0.00066110
  55        -0.00000000
  56         0.00000000
  57        -0.00000001
  58         0.00000000
  59        -0.00000000
  60        -0.00000000
Sym=    19a  
Ene=     0.0000
Spin= Alpha
Occup=    0.00000
   1         0.00335244
   2         0.02113785
   3         0.00143404
   4        -0.02554265
   5        -0.00000000
   6         0.00000000
   7         0.02471617
   8        -0.00000000