   This run of MOLCAS is using the pymolcas driver

                             OPE
                             OPE          NMOL  CASOP  ENMOLC A   SO
                 OPE        NMOLC        AS  OP EN  MO LC     AS  OP
                OPENM       OL CA        SO  PE NM  OL CA     SOP EN
                OP EN      MO   LC       AS  OP ENMOL  CASO   PENMOL
                OP  EN     MO   LC       AS  OP EN     MO     LC ASO
               OP   E  NMOL  C  AS       OP  EN MO     LC     AS  OP
               OP  E   NMO   LC AS        OPEN  MO     LCASOP EN   M
               O  PEN   MO  LCA  SO
            OPE   NMO   L   CAS    OP
        OPENMOL  CASOP     ENMOL   CASOPE
     OPENMOLCA   SOPENMOLCASOPEN   MOLCASOPE
    OPENMOLCAS   OP           EN   MOL    CAS
    OPENMOLCAS       OP  ENM        O     LCA
    OPENMOLCAS    OPEN  MOLCASO     P  E  NMO
    OPENMOLCAS     OP               E  N  MOL
    OPENMOLCA   SO           PENM   O  L  CAS    OPEN    MO    LCAS
    OPENMOLCA   SOP           ENM   O  L  CAS   OP  EN  MOLC  AS   O
    OPENMOLCA   SOPE           NM      O  LCA   S      OP  EN MO
    OPENMOLC                AS         O  PEN   M      OL  CA  SOPE
    OPENMO        LCASOPE  NMOL        C  ASO   P      ENMOLC     AS
    OPE     NMO      LCA  SO     P     E   NM   OL  CA SO  PE N   MO
          OPENMOLCA            SOPE   NMO        LCAS  O    P  ENMO
     OPENMOLCASOPENMOLCASOPENMOLCASOPENMOLCA
        OPENMOLCASOPENMOLCASOPENMOLCASOPE
            OPENMOLCASOPENMOLCASOPENM
               OPENMOLCASOPENMOLCA        version: o822a959167d23c ?
                   OPENMOLCASO
                       OPE                tag:

 OpenMolcas is free software; you can redistribute it and/or modify it
 under the terms of the GNU Lesser General Public License version 2.1.
 OpenMolcas is distributed in the hope that it will be useful, but it
 is provided "as is" and without any express or implied warranties.
 For more details see the full text of the license in the file
 LICENSE or in <http://www.gnu.org/licenses/>.

                 Copyright (C) The OpenMolcas Authors
           For the author list and the recommended citation,
                   consult the file CONTRIBUTORS.md

           *************************************************
           * pymolcas version py2.28                       *
           *   build c4a6d18ded8cb6cad61d2372a9abd97c      *
           *   (after the EMIL interpreter by V. Veryazov) *
           *************************************************

configuration info
------------------
Host name: mgt (Linux)
C Compiler ID: GNU
C flags: -std=gnu99
Fortran Compiler ID: GNU
Fortran flags: -fno-aggressive-loop-optimizations -cpp -fdefault-integer-8 -fmax-stack-var-size=1048576
Definitions: _MOLCAS_;_I8_;_LINUX_
Parallel: OFF (GA=OFF)


   ----------------------------------------------------------------------------------------------------------
  |
  |           Project: n2
  |    Submitted from: /public/home/xzzeng/work/HQC/N2/cc-pvtz/NO/PES/entropy/0.8/results/work_dir/n2/initial
  |      Scratch area: /public/home/xzzeng/work/HQC/N2/cc-pvtz/NO/PES/entropy/0.8/results/scratch
  |   Save outputs to: /public/home/xzzeng/work/HQC/N2/cc-pvtz/NO/PES/entropy/0.8/results/work_dir/n2/initial
  |            Molcas: /public/home/xzzeng/soft/OpenMolcas/build
  |
  | Scratch area is empty
  |
  |    MOLCAS_DRIVER = /public/home/xzzeng/soft/OpenMolcas/build/pymolcas
  |    MOLCAS_NPROCS = 1
  |    MOLCAS_SOURCE = /public/home/xzzeng/soft/OpenMolcas
  | MOLCAS_STRUCTURE = 0
  |
   ----------------------------------------------------------------------------------------------------------

++ ---------   Input file   ---------

&GATEWAY
  COORD = /public/home/xzzeng/work/HQC/N2/cc-pvtz/NO/PES/entropy/0.8/n2.xyz
  BASIS = cc-pvtz
  GROUP = C1

&SEWARD
  CHOLesky

&SCF
  SPIN   = 1
  CHARGE = 0
  CHOLesky

-- ----------------------------------

--- Start Module: gateway at Tue Apr  9 00:41:26 2024 ---

()()()()()()()()()()()()()()()()()()()()()()()()()()()()()()()()()()()()()()()()()()()()()()()()()()

                                              &GATEWAY

                                   only a single process is used
                       available to each process: 12 GB of memory, 1 thread?
                                             pid: 59632
()()()()()()()()()()()()()()()()()()()()()()()()()()()()()()()()()()()()()()()()()()()()()()()()()()


++    Symmetry information:
      ---------------------

                    Character Table for C1 

                             E  
                    a        1  x, y, xy, Rz, z, xz, Ry, yz, Rx, I
--


++    Basis set information:
      ----------------------


      Basis set label: N.CC-PVTZ.........

      Electronic valence basis set:
      ------------------
      Associated Effective Charge   7.000000 au
      Associated Actual Charge      7.000000 au
      Nuclear Model: Point charge

      Shell  nPrim  nBasis  Cartesian Spherical Contaminant
         s      10       4        X                  
         p       5       3        X                  
         d       2       2                 X         
         f       1       1                 X         
--


++    Molecular structure info:
      -------------------------

                    ************************************************ 
                    **** Cartesian Coordinates / Bohr, Angstrom **** 
                    ************************************************ 

     Center  Label                x              y              z                     x              y              z
        1      N1               0.000000       0.000000       0.000000              0.000000       0.000000       0.000000
        2      N2               0.000000       0.000000       1.511781              0.000000       0.000000       0.800000
--


            Nuclear Potential Energy             32.41210417 au

--- Stop Module: gateway at Tue Apr  9 00:41:26 2024 /rc=_RC_ALL_IS_WELL_ ---
*** files: xmldump
    saved to directory /public/home/xzzeng/work/HQC/N2/cc-pvtz/NO/PES/entropy/0.8/results/work_dir/n2/initial

--- Start Module: seward at Tue Apr  9 00:41:26 2024 ---

()()()()()()()()()()()()()()()()()()()()()()()()()()()()()()()()()()()()()()()()()()()()()()()()()()

                                              &SEWARD

                                   only a single process is used
                       available to each process: 12 GB of memory, 1 thread?
                                             pid: 59645
()()()()()()()()()()()()()()()()()()()()()()()()()()()()()()()()()()()()()()()()()()()()()()()()()()

               SEWARD will generate:
                  Multipole Moment integrals up to order  2
                  Kinetic Energy integrals
                  Nuclear Attraction integrals (point charge)
                  One-Electron Hamiltonian integrals
                  Velocity integrals
                  Orbital angular momentum around ( 0.0000  0.0000  0.7559 )
                  Velocity quadrupole around ( 0.0000  0.0000  0.7559 )
                  Cholesky decomposed two-electron repulsion integrals
                   - CD Threshold:   0.10E-03

                   Integrals are discarded if absolute value <: 1.00E-40
                   Integral cutoff threshold is set to       <: 1.00E-40

            Nuclear Potential Energy             32.41210417 au


      Basis set specifications :
      Symmetry species         a  
      Basis functions           60


      Input file to MOLDEN was generated!

--- Stop Module: seward at Tue Apr  9 00:41:27 2024 /rc=_RC_ALL_IS_WELL_ ---
*** files: n2.GssOrb n2.guessorb.h5 n2.guessorb.molden xmldump
    saved to directory /public/home/xzzeng/work/HQC/N2/cc-pvtz/NO/PES/entropy/0.8/results/work_dir/n2/initial

*** symbolic link created: INPORB -> n2.GssOrb
--- Start Module: scf at Tue Apr  9 00:41:27 2024 ---

()()()()()()()()()()()()()()()()()()()()()()()()()()()()()()()()()()()()()()()()()()()()()()()()()()

                                                &SCF

                                   only a single process is used
                       available to each process: 12 GB of memory, 1 thread?
                                             pid: 59660
()()()()()()()()()()()()()()()()()()()()()()()()()()()()()()()()()()()()()()()()()()()()()()()()()()

++    Input section:
      --------------

      Header of the integral files:
      
       Integrals generated by Gateway/Seward, Tue Apr  9 00:41:26 2024


      Cartesian coordinates in Angstrom:
      -----------------------------------------------------
      No.  Label        X            Y            Z        
      -----------------------------------------------------
       1   N1         0.00000000   0.00000000   0.00000000
       2   N2         0.00000000   0.00000000   0.80000000
      -----------------------------------------------------
      Nuclear repulsion energy =   32.41210417
--

++    Orbital specifications:
      -----------------------

      Symmetry species               1
                                     a
      Frozen orbitals                0
      Occupied orbitals              7
      Secondary orbitals            53
      Deleted orbitals               0
      Total number of orbitals      60
      Number of basis functions     60
--

      Molecular charge                           0.000

++    Optimization specifications:
      ----------------------------

      SCF Algorithm: LK-Cholesky
      LK screening threshold:                     4.50E-02
      Local-Exchange (LK) algorithm.
       - the density matrix is decomposed
      The actual AO density is used
      Number of density matrices in core                 5
      Maximum number of NDDO SCF iterations            400
      Maximum number of HF SCF iterations              400
      Threshold for SCF energy change             1.00E-09
      Threshold for density matrix                1.00E-04
      Threshold for Fock matrix                   1.50E-04
      Threshold for linear dependence             1.00E-09
      Threshold at which DIIS is turned on        1.50E-01
      Maximum depth in the DIIS procedure                5
      Maximum depth in the BFGS Hessian update          30
      Threshold at which QNR/C2DIIS is turned on  7.50E-02
      Threshold for Norm(delta) (QNR/C2DIIS)      1.00E-03
      All orbitals punched on: SCFORB
--

      Input vectors read from INPORB
      Orbital file label: *Guess orbitals


++ Convergence information
                                   SCF        iterations: Energy and convergence statistics

Iter     Tot. SCF        One-elec.       Two-elec.     Energy      Max Dij or  Max Fij      DNorm      TNorm      AccCon     Time
         Energy          Energy          Energy        Change      Delta Norm                                                in Sec.
   1  -107.964529983  -206.206198261    65.829564110   0.00E+00    3.01E-01*   4.12E-01*    5.64E+00   8.26E+01   None         0.
   2  -108.456915493  -211.990005821    71.120986159  -4.92E-01*   8.33E-02*   7.84E-02*    7.94E+00   8.55E+01   EDIIS        0.
   3  -108.495065125  -209.967693058    69.060523766  -3.81E-02*   1.94E-02*   2.19E-02*    7.41E+00   8.44E+01   c2DIIS       0.
   4  -108.498718883  -210.470650394    69.559827343  -3.65E-03*   5.43E-03*   5.04E-03*    7.63E+00   8.47E+01   QNRc2DIIS    0.
   5  -108.498833430  -210.413214832    69.502277234  -1.15E-04*   2.19E-03*   1.09E-03*    7.63E+00   8.47E+01   QNRc2DIIS    0.
   6  -108.498844381  -210.423128440    69.512179891  -1.10E-05*   1.28E-04    1.45E-04     7.64E+00   8.47E+01   QNRc2DIIS    0.
   7  -108.498844466  -210.422056269    69.511107636  -8.44E-08*   4.49E-05    2.35E-05     7.64E+00   8.47E+01   QNRc2DIIS    0.
   8  -108.498844471  -210.422055992    69.511107353  -4.84E-09*   3.77E-06    1.91E-06     7.64E+00   8.47E+01   QNRc2DIIS    0.
 DIIS_X: Reduction of the subspace dimension due to numerical imbalance of the values in the B-Matrix
 kOptim=                    5 -> kOptim=                    4
   9  -108.498844471  -210.422058101    69.511109462  -3.50E-11    9.31E-08    8.64E-08     7.64E+00   8.47E+01   QNRc2DIIS    0.

       Convergence after   9 Macro Iterations
--

 *****************************************************************************************************************************
 *                                                                                                                           *
 *                                             SCF/KS-DFT Program, Final results                                             *
 *                                                                                                                           *
 *                                                                                                                           *
 *                                                                                                                           *
 *                                                       Final Results                                                       *
 *                                                                                                                           *
 *****************************************************************************************************************************

::    Total SCF energy                               -108.4988444707
      One-electron energy                            -210.4220581008
      Two-electron energy                              69.5111094622
      Nuclear repulsion energy                         32.4121041678
      Kinetic energy (interpolated)                   112.4961851843
      Virial theorem                                    0.9644668776
      Total spin, S(S+1)                                0.0000000000
      Total spin, S                                     0.0000000000
      Max non-diagonal density matrix element           0.0000000877
      Max non-diagonal Fock matrix element              0.0000000126


      All orbitals with orbital energies smaller than  E(LUMO)+0.5 are printed

++    Molecular orbitals:
      -------------------

      Title: SCF orbitals

      Molecular orbitals for symmetry species 1: a  

          Orbital            1         2         3         4         5         6         7         8         9        10    
          Energy          -15.5902  -15.5535   -1.6584   -0.7866   -0.7866   -0.6684   -0.6561    0.3191    0.3191    0.4363
          Occ. No.          2.0000    2.0000    2.0000    2.0000    2.0000    2.0000    2.0000    0.0000    0.0000    0.0000

        1 N1     1s         0.7042   -0.7070   -0.0713    0.0000   -0.0000    0.0005    0.0234   -0.0000   -0.0000   -0.0509
        2 N1     2s         0.0025   -0.0002    0.5976   -0.0000    0.0000   -0.5803    0.2343   -0.0000   -0.0000   -0.4470
        3 N1     *s         0.0029   -0.0042   -0.0088    0.0000   -0.0000    0.0109   -0.0108    0.0000    0.0000   -0.0436
        4 N1     *s        -0.0019   -0.0155   -0.1883   -0.0000    0.0000   -0.0754    0.2152   -0.0000   -0.0000  -14.3540
        5 N1     2px       -0.0000   -0.0000   -0.0000    0.6504   -0.2819   -0.0000    0.0000   -0.4268   -0.1760   -0.0000
        6 N1     *px        0.0000    0.0000   -0.0000   -0.0546    0.0237    0.0000    0.0000   -0.1420   -0.0586    0.0000
        7 N1     *px        0.0000    0.0000    0.0000   -0.1141    0.0495    0.0000    0.0000   -1.1438   -0.4717    0.0000
        8 N1     2py       -0.0000    0.0000   -0.0000    0.2819    0.6504    0.0000   -0.0000   -0.1760    0.4268    0.0000
        9 N1     *py       -0.0000   -0.0000   -0.0000   -0.0237   -0.0546   -0.0000   -0.0000   -0.0586    0.1420    0.0000
       10 N1     *py       -0.0000   -0.0000    0.0000   -0.0495   -0.1141   -0.0000   -0.0000   -0.4717    1.1438   -0.0000
       11 N1     2pz        0.0109   -0.0081    0.5314    0.0000   -0.0000    0.3825   -0.7723   -0.0000   -0.0000    0.1681
       12 N1     *pz       -0.0063    0.0026   -0.1297    0.0000   -0.0000   -0.0057    0.1222   -0.0000   -0.0000   -0.2446
       13 N1     *pz       -0.0041   -0.0019   -0.1802    0.0000   -0.0000   -0.0116    0.1354   -0.0000   -0.0000   -5.3753
       14 N1     *d2-       0.0000    0.0000   -0.0000   -0.0000    0.0000    0.0000   -0.0000    0.0000    0.0000   -0.0000
       15 N1     *d2-      -0.0000    0.0000   -0.0000   -0.0000   -0.0000    0.0000    0.0000    0.0000    0.0000    0.0000
       16 N1     *d1-      -0.0000    0.0000   -0.0000    0.0138    0.0319   -0.0000    0.0000    0.0050   -0.0122   -0.0000
       17 N1     *d1-      -0.0000   -0.0000   -0.0000    0.0132    0.0304   -0.0000    0.0000   -0.0595    0.1443   -0.0000
       18 N1     *d0        0.0020   -0.0016    0.0282    0.0000    0.0000    0.0041   -0.0227    0.0000    0.0000    0.0273
       19 N1     *d0       -0.0012   -0.0008    0.0093    0.0000   -0.0000    0.0079   -0.0009   -0.0000   -0.0000   -0.2137
       20 N1     *d1+       0.0000   -0.0000    0.0000    0.0319   -0.0138   -0.0000   -0.0000    0.0122    0.0050    0.0000
       21 N1     *d1+       0.0000   -0.0000   -0.0000    0.0304   -0.0132   -0.0000   -0.0000   -0.1443   -0.0595    0.0000
       22 N1     *d2+      -0.0000    0.0000    0.0000    0.0000    0.0000   -0.0000   -0.0000   -0.0000    0.0000   -0.0000
       23 N1     *d2+      -0.0000    0.0000    0.0000   -0.0000    0.0000   -0.0000    0.0000   -0.0000    0.0000    0.0000
       24 N1     *f3-      -0.0000   -0.0000   -0.0000   -0.0000   -0.0000    0.0000   -0.0000   -0.0000    0.0000    0.0000
       25 N1     *f2-      -0.0000    0.0000   -0.0000    0.0000    0.0000    0.0000    0.0000    0.0000    0.0000    0.0000
       26 N1     *f1-      -0.0000   -0.0000   -0.0000    0.0037    0.0086   -0.0000    0.0000   -0.0074    0.0180   -0.0000
       27 N1     *f0        0.0005   -0.0005    0.0064   -0.0000    0.0000    0.0002   -0.0038   -0.0000   -0.0000   -0.0113
       28 N1     *f1+       0.0000   -0.0000    0.0000    0.0086   -0.0037   -0.0000   -0.0000   -0.0180   -0.0074    0.0000
       29 N1     *f2+       0.0000    0.0000    0.0000    0.0000   -0.0000    0.0000   -0.0000   -0.0000    0.0000    0.0000
       30 N1     *f3+      -0.0000   -0.0000   -0.0000    0.0000   -0.0000   -0.0000    0.0000    0.0000    0.0000    0.0000
       31 N2     1s         0.7041    0.7072   -0.0713   -0.0000   -0.0000   -0.0005    0.0234   -0.0000   -0.0000    0.0508
       32 N2     2s         0.0029    0.0002    0.5977    0.0000   -0.0000    0.5803    0.2342   -0.0000   -0.0000    0.4468
       33 N2     *s         0.0029    0.0042   -0.0088   -0.0000    0.0000   -0.0109   -0.0108    0.0000    0.0000    0.0436
       34 N2     *s        -0.0018    0.0155   -0.1882    0.0000   -0.0000    0.0754    0.2152    0.0000    0.0000   14.3540
       35 N2     2px        0.0000    0.0000    0.0000    0.6504   -0.2819   -0.0000   -0.0000    0.4268    0.1760    0.0000
       36 N2     *px       -0.0000   -0.0000    0.0000   -0.0546    0.0237    0.0000    0.0000    0.1420    0.0586    0.0000
       37 N2     *px       -0.0000   -0.0000   -0.0000   -0.1141    0.0495    0.0000   -0.0000    1.1438    0.4717   -0.0000
       38 N2     2py       -0.0000   -0.0000   -0.0000    0.2819    0.6504    0.0000    0.0000    0.1760   -0.4268   -0.0000
       39 N2     *py        0.0000    0.0000    0.0000   -0.0237   -0.0546   -0.0000   -0.0000    0.0586   -0.1420   -0.0000
       40 N2     *py        0.0000    0.0000    0.0000   -0.0495   -0.1141   -0.0000   -0.0000    0.4717   -1.1438    0.0000
       41 N2     2pz       -0.0109   -0.0082   -0.5314    0.0000   -0.0000    0.3826    0.7723   -0.0000   -0.0000    0.1682
       42 N2     *pz        0.0061    0.0026    0.1297   -0.0000    0.0000   -0.0057   -0.1222   -0.0000   -0.0000   -0.2447
       43 N2     *pz        0.0041   -0.0019    0.1801   -0.0000    0.0000   -0.0116   -0.1354    0.0000   -0.0000   -5.3758
       44 N2     *d2-      -0.0000    0.0000    0.0000   -0.0000    0.0000    0.0000   -0.0000   -0.0000   -0.0000   -0.0000
       45 N2     *d2-       0.0000    0.0000    0.0000   -0.0000    0.0000    0.0000    0.0000   -0.0000   -0.0000    0.0000
       46 N2     *d1-      -0.0000    0.0000    0.0000   -0.0138   -0.0319   -0.0000   -0.0000    0.0050   -0.0122   -0.0000
       47 N2     *d1-      -0.0000   -0.0000    0.0000   -0.0132   -0.0304    0.0000    0.0000   -0.0595    0.1443   -0.0000
       48 N2     *d0        0.0020    0.0016    0.0282   -0.0000    0.0000   -0.0041   -0.0227   -0.0000   -0.0000   -0.0273
       49 N2     *d0       -0.0012    0.0008    0.0093   -0.0000    0.0000   -0.0079   -0.0009   -0.0000   -0.0000    0.2138
       50 N2     *d1+       0.0000   -0.0000   -0.0000   -0.0319    0.0138    0.0000    0.0000    0.0122    0.0050   -0.0000
       51 N2     *d1+       0.0000    0.0000   -0.0000   -0.0304    0.0132    0.0000    0.0000   -0.1443   -0.0595    0.0000
       52 N2     *d2+      -0.0000    0.0000    0.0000    0.0000    0.0000   -0.0000   -0.0000    0.0000   -0.0000    0.0000
       53 N2     *d2+      -0.0000   -0.0000   -0.0000    0.0000    0.0000   -0.0000   -0.0000    0.0000   -0.0000   -0.0000
       54 N2     *f3-       0.0000    0.0000    0.0000    0.0000    0.0000    0.0000   -0.0000    0.0000   -0.0000    0.0000
       55 N2     *f2-      -0.0000   -0.0000   -0.0000    0.0000   -0.0000   -0.0000    0.0000    0.0000    0.0000   -0.0000
       56 N2     *f1-       0.0000    0.0000    0.0000    0.0037    0.0086   -0.0000   -0.0000    0.0074   -0.0180    0.0000
       57 N2     *f0       -0.0005   -0.0005   -0.0064    0.0000   -0.0000    0.0002    0.0038   -0.0000    0.0000   -0.0113
       58 N2     *f1+      -0.0000   -0.0000   -0.0000    0.0086   -0.0037   -0.0000    0.0000    0.0180    0.0074   -0.0000
       59 N2     *f2+       0.0000    0.0000    0.0000   -0.0000   -0.0000    0.0000    0.0000   -0.0000    0.0000    0.0000
       60 N2     *f3+      -0.0000   -0.0000    0.0000   -0.0000    0.0000   -0.0000    0.0000   -0.0000   -0.0000   -0.0000

          Orbital           11        12        13        14    
          Energy            0.5039    0.5039    0.5233    0.7186
          Occ. No.          0.0000    0.0000    0.0000    0.0000

        1 N1     1s        -0.0000    0.0000    0.0908    0.3300
        2 N1     2s        -0.0000    0.0000    0.2966    1.5775
        3 N1     *s        -0.0000    0.0000    0.1549   -0.0770
        4 N1     *s        -0.0000    0.0000    0.1093   -1.4917
        5 N1     2px       -0.3282    0.0971   -0.0000   -0.0000
        6 N1     *px       -0.2470    0.0731    0.0000   -0.0000
        7 N1     *px        0.7612   -0.2252    0.0000    0.0000
        8 N1     2py       -0.0971   -0.3282    0.0000    0.0000
        9 N1     *py       -0.0731   -0.2470    0.0000    0.0000
       10 N1     *py        0.2252    0.7612   -0.0000   -0.0000
       11 N1     2pz        0.0000   -0.0000    0.4057   -0.1642
       12 N1     *pz       -0.0000    0.0000   -0.0415   -0.1649
       13 N1     *pz       -0.0000    0.0000   -1.7867   -0.1041
       14 N1     *d2-       0.0000   -0.0000   -0.0000    0.0000
       15 N1     *d2-      -0.0000    0.0000    0.0000   -0.0000
       16 N1     *d1-      -0.0077   -0.0261   -0.0000    0.0000
       17 N1     *d1-      -0.0072   -0.0243   -0.0000    0.0000
       18 N1     *d0       -0.0000    0.0000    0.0304   -0.0012
       19 N1     *d0       -0.0000   -0.0000   -0.2985    0.0828
       20 N1     *d1+      -0.0261    0.0077    0.0000   -0.0000
       21 N1     *d1+      -0.0243    0.0072    0.0000    0.0000
       22 N1     *d2+      -0.0000   -0.0000   -0.0000    0.0000
       23 N1     *d2+       0.0000    0.0000   -0.0000    0.0000
       24 N1     *f3-       0.0000    0.0000    0.0000    0.0000
       25 N1     *f2-       0.0000   -0.0000   -0.0000   -0.0000
       26 N1     *f1-       0.0022    0.0075   -0.0000   -0.0000
       27 N1     *f0        0.0000   -0.0000   -0.0438   -0.0160
       28 N1     *f1+       0.0075   -0.0022    0.0000    0.0000
       29 N1     *f2+      -0.0000   -0.0000   -0.0000    0.0000
       30 N1     *f3+      -0.0000    0.0000    0.0000    0.0000
       31 N2     1s        -0.0000    0.0000    0.0907    0.3298
       32 N2     2s        -0.0000    0.0000    0.2965    1.5769
       33 N2     *s         0.0000   -0.0000    0.1549   -0.0770
       34 N2     *s         0.0000   -0.0000    0.1114   -1.4916
       35 N2     2px       -0.3282    0.0971   -0.0000    0.0000
       36 N2     *px       -0.2470    0.0731   -0.0000   -0.0000
       37 N2     *px        0.7611   -0.2252   -0.0000    0.0000
       38 N2     2py       -0.0971   -0.3282    0.0000    0.0000
       39 N2     *py       -0.0731   -0.2470    0.0000    0.0000
       40 N2     *py        0.2252    0.7611    0.0000   -0.0000
       41 N2     2pz        0.0000   -0.0000   -0.4057    0.1642
       42 N2     *pz       -0.0000    0.0000    0.0416    0.1651
       43 N2     *pz       -0.0000    0.0000    1.7858    0.1042
       44 N2     *d2-       0.0000   -0.0000    0.0000   -0.0000
       45 N2     *d2-      -0.0000    0.0000   -0.0000    0.0000
       46 N2     *d1-       0.0077    0.0261    0.0000   -0.0000
       47 N2     *d1-       0.0072    0.0243   -0.0000   -0.0000
       48 N2     *d0        0.0000   -0.0000    0.0304   -0.0013
       49 N2     *d0        0.0000   -0.0000   -0.2985    0.0828
       50 N2     *d1+       0.0261   -0.0077   -0.0000    0.0000
       51 N2     *d1+       0.0243   -0.0072    0.0000    0.0000
       52 N2     *d2+      -0.0000   -0.0000    0.0000   -0.0000
       53 N2     *d2+       0.0000    0.0000    0.0000   -0.0000
       54 N2     *f3-       0.0000    0.0000    0.0000   -0.0000
       55 N2     *f2-      -0.0000    0.0000   -0.0000   -0.0000
       56 N2     *f1-       0.0022    0.0075    0.0000   -0.0000
       57 N2     *f0       -0.0000    0.0000    0.0438    0.0160
       58 N2     *f1+       0.0075   -0.0022   -0.0000    0.0000
       59 N2     *f2+       0.0000    0.0000   -0.0000    0.0000
       60 N2     *f3+      -0.0000    0.0000    0.0000   -0.0000
--


++    Molecular charges:
      ------------------

      Mulliken charges per centre and basis function type
      ---------------------------------------------------

                N1      N2    
      1s       1.9966  1.9967
      2s       1.6106  1.6107
      2px      1.2187  1.2187
      2pz      1.7194  1.7194
      2py      1.2187  1.2187
      *s       0.0315  0.0316
      *px     -0.2632 -0.2632
      *pz     -0.3734 -0.3732
      *py     -0.2632 -0.2632
      *d2+     0.0000  0.0000
      *d1+     0.0405  0.0405
      *d0      0.0156  0.0156
      *d1-     0.0405  0.0405
      *d2-     0.0000  0.0000
      *f3+     0.0000  0.0000
      *f2+     0.0000  0.0000
      *f1+     0.0040  0.0040
      *f0     -0.0005 -0.0005
      *f1-     0.0040  0.0040
      *f2-     0.0000  0.0000
      *f3-     0.0000  0.0000
      Total    6.9997  7.0003

      N-E      0.0003 -0.0003

      Total electronic charge=   14.000000

      Total            charge=   -0.000000
--


++    Molecular properties:
      ---------------------

      Charge (e):
                      =   -0.0000
      Dipole Moment (Debye):
      Origin of the operator (Ang)=    0.0000    0.0000    0.0000
                   X= -2.6440E-12               Y=  1.9506E-12               Z=  1.1321E-05           Total=  1.1321E-05
      Quadrupole Moment (Debye*Ang):
      Origin of the operator (Ang)=    0.0000    0.0000    0.4000
                  XX= -9.0409E+00              XY= -1.4276E-15              XZ=  2.0851E-12              YY= -9.0409E+00
                  YZ= -1.5146E-12              ZZ= -1.1305E+01
      In traceless form (Debye*Ang)
                  XX=  1.1319E+00              XY= -2.1413E-15              XZ=  3.1277E-12              YY=  1.1319E+00
                  YZ= -2.2718E-12              ZZ= -2.2639E+00
--


      Input file to MOLDEN was generated!

 ###############################################################################
 ###############################################################################
 ###                                                                         ###
 ###                                                                         ###
 ###    WARNING: RunFile label nBas                                          ###
 ###    was used       74 times                                              ###
 ###                                                                         ###
 ###                                                                         ###
 ###############################################################################
 ###############################################################################
--- Stop Module: scf at Tue Apr  9 00:41:28 2024 /rc=_RC_ALL_IS_WELL_ ---
*** files: n2.GssOrb n2.guessorb.h5 n2.guessorb.molden n2.scf.molden n2.ScfOrb n2.scf.h5 xmldump
    saved to directory /public/home/xzzeng/work/HQC/N2/cc-pvtz/NO/PES/entropy/0.8/results/work_dir/n2/initial
--- Module scf spent 1 second ---

.##################.
.# Happy landing! #.
.##################.

    Timing: Wall=2.39 User=1.50 System=0.25
