Generated by MOKIT
SP        RHF                                                         MYBAS
Number of atoms                            I                2
Charge                                     I                0
Multiplicity                               I                1
Number of electrons                        I               14
Number of alpha electrons                  I                7
Number of beta electrons                   I                7
Number of basis functions                  I               60
Number of independent functions            I               60
Atomic numbers                             I   N=           2
           7           7
Nuclear charges                            R   N=           2
  7.00000000E+00  7.00000000E+00
Current cartesian coordinates              R   N=           6
  0.00000000E+00  0.00000000E+00  0.00000000E+00  0.00000000E+00  0.00000000E+00
  2.26767135E+00
Int Atom Types                             I   N=           2
           0           0
Number of contracted shells                I               20
Number of primitive shells                 I               52
Highest angular momentum                   I                3
Largest degree of contraction              I                8
Shell types                                I   N=          20
           0           0           0           0           1           1
           1          -2          -2          -3           0           0
           0           0           1           1           1          -2
          -2          -3
Number of primitives per shell             I   N=          20
           8           8           1           1           3           1
           1           1           1           1           8           8
           1           1           3           1           1           1
           1           1
Shell to atom map                          I   N=          20
           1           1           1           1           1           1
           1           1           1           1           2           2
           2           2           2           2           2           2
           2           2
Primitive exponents                        R   N=          52
  1.14200000E+04  1.71200000E+03  3.89300000E+02  1.10000000E+02  3.55700000E+01
  1.25400000E+01  4.64400000E+00  5.11800000E-01  1.14200000E+04  1.71200000E+03
  3.89300000E+02  1.10000000E+02  3.55700000E+01  1.25400000E+01  4.64400000E+00
  5.11800000E-01  1.29300000E+00  1.78700000E-01  2.66300000E+01  5.94800000E+00
  1.74200000E+00  5.55000000E-01  1.72500000E-01  1.65400000E+00  4.69000000E-01
  1.09300000E+00  1.14200000E+04  1.71200000E+03  3.89300000E+02  1.10000000E+02
  3.55700000E+01  1.25400000E+01  4.64400000E+00  5.11800000E-01  1.14200000E+04
  1.71200000E+03  3.89300000E+02  1.10000000E+02  3.55700000E+01  1.25400000E+01
  4.64400000E+00  5.11800000E-01  1.29300000E+00  1.78700000E-01  2.66300000E+01
  5.94800000E+00  1.74200000E+00  5.55000000E-01  1.72500000E-01  1.65400000E+00
  4.69000000E-01  1.09300000E+00
Contraction coefficients                   R   N=          52
  5.34980914E-04  4.13766310E-03  2.12509149E-02  8.25762988E-02  2.38413273E-01
  4.43431666E-01  3.55431909E-01 -8.70290176E-03 -1.98776985E-04 -1.54700349E-03
 -7.99256330E-03 -3.20255651E-02 -9.91102048E-02 -2.28292775E-01 -2.98182763E-01
  1.03700052E+00  1.00000000E+00  1.00000000E+00  3.98072123E-02  2.49002660E-01
  8.10479727E-01  1.00000000E+00  1.00000000E+00  1.00000000E+00  1.00000000E+00
  1.00000000E+00  5.34980914E-04  4.13766310E-03  2.12509149E-02  8.25762988E-02
  2.38413273E-01  4.43431666E-01  3.55431909E-01 -8.70290176E-03 -1.98776985E-04
 -1.54700349E-03 -7.99256330E-03 -3.20255651E-02 -9.91102048E-02 -2.28292775E-01
 -2.98182763E-01  1.03700052E+00  1.00000000E+00  1.00000000E+00  3.98072123E-02
  2.49002660E-01  8.10479727E-01  1.00000000E+00  1.00000000E+00  1.00000000E+00
  1.00000000E+00  1.00000000E+00
Coordinates of each shell                  R   N=          60
  0.00000000E+00  0.00000000E+00  0.00000000E+00  0.00000000E+00  0.00000000E+00
  0.00000000E+00  0.00000000E+00  0.00000000E+00  0.00000000E+00  0.00000000E+00
  0.00000000E+00  0.00000000E+00  0.00000000E+00  0.00000000E+00  0.00000000E+00
  0.00000000E+00  0.00000000E+00  0.00000000E+00  0.00000000E+00  0.00000000E+00
  0.00000000E+00  0.00000000E+00  0.00000000E+00  0.00000000E+00  0.00000000E+00
  0.00000000E+00  0.00000000E+00  0.00000000E+00  0.00000000E+00  0.00000000E+00
  0.00000000E+00  0.00000000E+00  2.26767135E+00  0.00000000E+00  0.00000000E+00
  2.26767135E+00  0.00000000E+00  0.00000000E+00  2.26767135E+00  0.00000000E+00
  0.00000000E+00  2.26767135E+00  0.00000000E+00  0.00000000E+00  2.26767135E+00
  0.00000000E+00  0.00000000E+00  2.26767135E+00  0.00000000E+00  0.00000000E+00
  2.26767135E+00  0.00000000E+00  0.00000000E+00  2.26767135E+00  0.00000000E+00
  0.00000000E+00  2.26767135E+00  0.00000000E+00  0.00000000E+00  2.26767135E+00
Num ILSW                                   I              100
ILSW                                       I   N=         100
           0           0           0           0           2           0
           0           0           0           0           0          -1
           5           0           0           0           0           0
           0           0           0           0           0           0
           1           1           0           0           0           0
           0           0      100000           0          -1           0
           0           0           0           0           0           0
           0           0           0           1           0           0
           0 -2000000000           1           0           0           0
           0           0           4          52           0           0
           0           0           0           0           0           0
           0           0           0           2           0           1
           0           0           0           0           0           0
           0           0           0           0           0           0
           0           0           0           0           0           0
           0           0           0           0           0           0
           0           0           0           0
Virial Ratio                               R      0.000000000000000E+00
Total Energy                               R      0.000000000000000E+00
Alpha Orbital Energies                     R   N=          60
 -1.57157203E+01 -1.57136439E+01 -1.39752396E+00 -8.09504020E-01 -6.21807455E-01
 -5.71901558E-01 -5.71901558E-01  1.14230519E-01  1.14230519E-01  4.10956512E-01
  5.75847210E-01  5.77869056E-01  5.77869056E-01  6.65735653E-01  7.16703808E-01
  7.16703808E-01  8.24065772E-01  1.02960092E+00  1.05553471E+00  1.05553471E+00
  1.27701469E+00  1.27701469E+00  1.47452448E+00  1.47452448E+00  1.91806611E+00
  1.91806611E+00  1.92790864E+00  2.05679911E+00  3.15898575E+00  3.15898575E+00
  3.26843914E+00  3.42196771E+00  3.42196771E+00  3.80585082E+00  3.80585082E+00
  3.86304167E+00  3.91252429E+00  3.91252429E+00  4.00866812E+00  4.00866812E+00
  4.25625247E+00  4.37181258E+00  4.37181258E+00  4.75568514E+00  4.75568514E+00
  4.78353685E+00  4.86213429E+00  4.86213429E+00  4.97050198E+00  4.97050198E+00
  5.11330054E+00  5.11330054E+00  5.27604677E+00  5.27604677E+00  5.73058124E+00
  5.85838637E+00  6.39663210E+00  6.42944294E+00  6.42944294E+00  1.34393184E+01
Alpha MO coefficients                      R   N=        3600
 -6.91519101E-01  2.13019066E-03 -2.84916165E-02  1.74690953E-03  1.04863006E-16
  7.25514781E-16 -3.79700292E-03  7.17476866E-17  9.27270962E-16 -2.41243783E-03
  3.24047737E-17  5.94215918E-16 -1.68222400E-03 -4.78621247E-04  4.01020412E-18
  6.91121786E-17 -5.63431699E-20  4.03195410E-19  1.06042475E-04  8.16575344E-18
  8.57140650E-17 -1.85545858E-19  1.70869046E-19  2.14217144E-04  2.04651347E-18
  3.74145883E-17  1.40997298E-20  2.23533104E-20  6.90517112E-20  3.52363971E-20
 -6.91519101E-01  2.13019066E-03 -2.84916165E-02  1.74690953E-03  4.80680941E-17
  6.52530341E-16  3.79700292E-03  5.27057505E-17  8.61114853E-16  2.41243783E-03
  3.86606464E-17  5.75294421E-16  1.68222400E-03 -4.78621247E-04 -2.71068121E-18
 -4.62905164E-17  2.03361613E-19  4.55632373E-19  1.06042475E-04 -6.75634666E-18
 -1.15235192E-16 -3.16500452E-19  5.78903994E-19 -2.14217144E-04  7.76891291E-19
  2.35723736E-17  1.49577582E-19 -6.43167025E-20 -5.70630277E-20 -3.62462475E-20
 -6.90547427E-01  6.55444343E-03 -2.78055815E-02  1.37649002E-03 -1.88333037E-16
 -4.42447805E-16 -2.67552662E-03 -1.54128835E-16 -1.33143503E-15  5.88771056E-05
 -8.75703684E-17 -6.01166710E-16 -1.49607927E-03 -3.20807606E-04 -7.52323942E-18
 -7.09803053E-17 -6.88792639E-20 -4.31437961E-19  3.31112287E-04 -1.87639345E-17
 -8.64060813E-17 -1.39433604E-19 -4.09541551E-19 -1.58210734E-04 -3.74967144E-18
 -3.78809857E-17 -5.95346898E-20  6.68999598E-20  4.96213878E-20  2.03605026E-20
  6.90547427E-01 -6.55444343E-03  2.78055815E-02 -1.37649002E-03 -1.08122676E-16
 -6.62555355E-16 -2.67552662E-03 -1.34430865E-16 -8.74012864E-16  5.88771065E-05
 -9.08860832E-17 -5.85137885E-16 -1.49607926E-03  3.20807606E-04  7.00326990E-18
  4.68399812E-17 -1.48060793E-19 -4.14900359E-19 -3.31112287E-04  1.77544904E-17
  1.16307613E-16  1.55806334E-19 -2.69831855E-19 -1.58210734E-04 -3.01202944E-18
 -2.30724739E-17 -8.44524667E-20 -1.06479527E-21  3.83746367E-20  3.23549632E-20
 -8.41681812E-03  3.83814406E-01  1.00160720E-01  2.06148672E-01 -5.95872857E-16
 -6.91961118E-16 -1.95909558E-05 -3.03504024E-16 -7.53659971E-16 -8.44265606E-03
 -5.65338820E-16 -4.61553927E-16 -4.32241854E-02  8.88855317E-03 -4.47478121E-17
 -3.69232012E-17 -3.41433706E-19  2.46510883E-17  1.02402342E-02 -2.16954714E-17
 -9.43385150E-17 -1.15452717E-17  3.00729297E-17  4.25171470E-03 -3.30505651E-19
 -4.97066075E-17  1.79115925E-19 -1.97214303E-18 -1.16880254E-18 -6.91971952E-19
 -8.41681812E-03  3.83814406E-01  1.00160720E-01  2.06148672E-01 -4.49379928E-16
 -5.71831224E-16  1.95909558E-05 -5.93371981E-16 -6.98234624E-16  8.44265606E-03
 -3.20590537E-16 -4.56049674E-16  4.32241854E-02  8.88855317E-03  3.34928648E-17
  2.35336302E-17 -4.52169896E-18 -1.05656317E-18  1.02402342E-02  8.81374541E-17
  7.23270545E-17  4.86047187E-18 -2.28467561E-18 -4.25171470E-03 -2.06677595E-17
  1.37912506E-17 -4.34239146E-18  3.04780051E-18  1.19760319E-18  6.54684665E-19
  1.43028712E-02  3.93736566E-01  1.06378769E-01  3.06147095E-01 -5.97576510E-16
  5.70073003E-16 -1.08370505E-01 -7.84589892E-16  6.02573128E-16 -1.33566867E-01
 -1.88017775E-16  1.85452140E-16 -6.42637450E-02 -3.38577834E-03 -1.99903782E-17
  3.17146199E-17 -1.90032540E-18 -7.16093646E-18 -6.31973250E-03 -8.45824583E-17
  4.59984322E-17 -8.90307229E-18  2.85746783E-18  4.91746658E-04 -2.20885700E-17
  2.73215145E-17 -1.07507096E-18  5.89110396E-18 -1.37011973E-19 -2.00768907E-19
 -1.43028712E-02 -3.93736566E-01 -1.06378769E-01 -3.06147095E-01 -4.12269221E-16
  3.27339110E-16 -1.08370505E-01 -5.44513957E-16  4.11668567E-16 -1.33566867E-01
 -3.71148457E-16  2.53273822E-16 -6.42637450E-02  3.38577834E-03  2.72549017E-17
 -2.44404169E-17  4.04960886E-18 -9.43656345E-19  6.31973250E-03  6.78474546E-17
 -4.82770664E-17  5.48652795E-18  3.87790413E-18  4.91746658E-04 -6.77261650E-18
 -1.22776538E-17  1.22041304E-18 -4.35706706E-18 -5.42100940E-19 -6.56042096E-19
  1.04433591E-02 -1.78482918E-02  1.41949962E-03  1.83709178E-01 -1.43634658E-15
 -1.07729569E-15 -2.73919092E-01 -2.04862105E-15 -1.77679297E-15 -3.32596429E-01
 -1.53313877E-15 -1.25465312E-15 -1.53380147E-01 -2.10892877E-02 -1.01945458E-16
 -9.68586815E-17  6.31452614E-19  6.10442680E-17 -2.47109989E-02 -2.13244583E-16
 -2.32047522E-16 -1.70038341E-17  5.56230923E-17 -7.39659823E-03 -3.45909427E-17
 -1.05781478E-16  4.02971266E-18  2.74734384E-18  2.30882735E-19 -2.21883415E-19
  1.04433591E-02 -1.78482918E-02  1.41949962E-03  1.83709178E-01 -1.43331212E-15
 -1.63438760E-15  2.73919092E-01 -1.91110889E-15 -2.08853246E-15  3.32596429E-01
 -1.14520444E-15 -1.47850468E-15  1.53380147E-01 -2.10892877E-02  1.08237987E-16
  9.20745485E-17 -1.15177632E-18  4.38817096E-18 -2.47109989E-02  2.58380295E-16
  2.40349580E-16 -1.25600966E-17  1.83074761E-17  7.39659823E-03 -6.05820342E-17
  2.28241309E-17 -3.71704609E-18  5.77485168E-18 -9.75167912E-21  3.89114545E-19
  6.16568635E-17 -1.36177638E-15 -4.12996540E-16 -3.89289579E-15 -2.27085947E-01
 -4.90422681E-04  2.31614928E-15 -3.04725895E-01 -6.58096605E-04  1.29116236E-15
 -1.97632108E-01 -4.26813151E-04  1.39554501E-15 -3.19199866E-17 -1.58090258E-02
 -3.41417201E-05 -1.27274440E-16  7.99690877E-17 -3.35203724E-16 -3.83644257E-02
 -8.28531435E-05 -7.91062204E-17  3.45385007E-17  1.17011764E-16 -7.27556145E-03
 -1.57125547E-05  2.45500925E-17  9.90865660E-17  5.59865524E-17 -1.42273050E-16
 -9.73106696E-18  5.41204575E-16 -7.67433411E-16  6.04427145E-16 -2.27085947E-01
 -4.90422681E-04 -1.88924256E-15 -3.04725895E-01 -6.58096605E-04 -2.01232331E-15
 -1.97632108E-01 -4.26813151E-04 -1.81086501E-15  7.15967135E-17  1.58090258E-02
  3.41417201E-05  1.82490438E-17  3.83712179E-17  7.63443997E-16  3.83644257E-02
  8.28531435E-05  6.13222582E-17 -2.93384876E-16 -2.52364661E-16 -7.27556145E-03
 -1.57125547E-05 -2.09250081E-17  4.11452715E-17  1.16385467E-17  4.34827565E-17
 -1.53700365E-16 -1.71462483E-16  4.59120943E-18 -4.81459204E-16 -4.90422681E-04
  2.27085947E-01 -2.56504578E-15 -6.58096605E-04  3.04725895E-01 -2.21903132E-15
 -4.26813151E-04  1.97632108E-01 -1.94040236E-15 -1.13085316E-16 -3.41417201E-05
  1.58090258E-02 -1.06542848E-16 -4.01344217E-16 -5.53487977E-16 -8.28531435E-05
  3.83644257E-02  2.58200867E-16  7.34201411E-16 -7.40919924E-16 -1.57125547E-05
  7.27556145E-03  3.52304408E-18  1.57804907E-17  1.29629435E-17  1.42090738E-19
  4.44487217E-15  2.61284161E-15  1.54692853E-15  2.28710548E-15 -4.90422681E-04
  2.27085947E-01  3.29552592E-15 -6.58096605E-04  3.04725895E-01  1.61028573E-16
 -4.26813151E-04  1.97632108E-01  7.74095066E-16  2.94711619E-16  3.41417201E-05
 -1.58090258E-02  7.31273748E-18  1.30233248E-17  3.69067626E-16  8.28531435E-05
 -3.83644257E-02  7.15996702E-17 -1.12901421E-16 -2.73550880E-16 -1.57125547E-05
  7.27556145E-03  1.07891470E-18  3.40828754E-17 -9.28759623E-18  2.76490583E-17
  6.00516772E-15  1.09492179E-14 -1.38785067E-15  6.38477886E-15  3.12519628E-01
  1.78446832E-01 -2.99490022E-16  3.77818289E-01  2.15731976E-01  9.63937812E-15
  1.05417923E-01  6.01930013E-02  1.72862909E-15  2.84202416E-15 -1.03361807E-02
 -5.90189718E-03 -1.55306130E-16 -2.08223357E-16  1.49458572E-15 -7.26836998E-03
 -4.15019564E-03  2.53931696E-16  3.21347688E-16 -1.49427131E-15 -1.11720822E-03
 -6.37919190E-04  2.14331339E-17  4.27090141E-17 -1.52265691E-16  1.32874925E-16
  1.33173416E-15 -4.39495958E-16 -2.50795222E-15 -1.08723282E-14 -3.12519628E-01
 -1.78446832E-01 -6.03809868E-15 -3.77818289E-01 -2.15731976E-01  1.33437317E-14
 -1.05417923E-01 -6.01930013E-02  3.08238081E-15  9.29226427E-17 -1.03361807E-02
 -5.90189718E-03  6.85804086E-18 -9.24428196E-17 -6.80842094E-15 -7.26836998E-03
 -4.15019564E-03  2.57404347E-17 -3.15568486E-16  4.04671182E-15  1.11720822E-03
  6.37919190E-04  3.35521355E-17  1.69758661E-17  4.68352176E-18  4.11962135E-17
  2.72580261E-16  4.91233613E-16 -2.37685688E-16 -9.53931839E-15  1.78446832E-01
 -3.12519628E-01  4.76246309E-16  2.15731976E-01 -3.77818289E-01 -2.41225583E-15
  6.01930013E-02 -1.05417923E-01 -5.03022080E-15 -9.57801771E-16 -5.90189718E-03
  1.03361807E-02  1.29064236E-16  1.15281878E-16  7.87513824E-16 -4.15019564E-03
  7.26836998E-03 -4.12187861E-17  2.67619592E-16 -8.94932859E-17 -6.37919190E-04
  1.11720822E-03 -4.36562347E-17  8.84193319E-17 -2.33496102E-17 -6.23505448E-17
  6.43213703E-16  1.01675201E-15 -1.16198577E-15  9.03588180E-15 -1.78446832E-01
  3.12519628E-01  2.29658052E-15 -2.15731976E-01  3.77818289E-01 -3.68426633E-15
 -6.01930013E-02  1.05417923E-01 -3.51011050E-15 -5.84263820E-16 -5.90189718E-03
  1.03361807E-02 -2.10359880E-16 -4.08644567E-17  1.17759947E-15 -4.15019564E-03
  7.26836998E-03 -5.21371908E-17 -1.31569696E-16 -2.63029693E-17  6.37919190E-04
 -1.11720822E-03 -1.09738005E-16  1.92871590E-17  7.85012801E-17  5.06255609E-17
  3.23627338E-02  3.25054495E-01  1.26222375E-01  4.29448544E-01  2.60898553E-16
  1.64536285E-15  4.64953736E-01  8.59771333E-16 -1.77623412E-15  5.19155432E-01
 -3.04579457E-17  1.01869230E-15  1.11106661E-01 -3.13309657E-02 -4.48736263E-16
  1.06932937E-16  5.48632573E-17 -1.04943414E-16 -2.74780232E-02 -5.33662242E-16
 -9.33565953E-16 -3.17564076E-16  1.35040098E-17 -1.09200118E-02 -5.15340093E-16
  1.45932875E-16 -3.34375574E-17 -6.31817607E-16 -5.11466668E-17 -5.70688279E-18
 -3.23627338E-02 -3.25054495E-01 -1.26222375E-01 -4.29448544E-01  2.59015075E-16
 -1.24708520E-15  4.64953736E-01 -1.68712290E-16  1.53705120E-15  5.19155432E-01
 -8.86598222E-17 -3.65693523E-16  1.11106661E-01  3.13309657E-02  4.28760907E-16
  3.11235553E-16 -6.61139932E-17  7.00826447E-16  2.74780232E-02  6.78309340E-17
  2.27841637E-16 -9.61259794E-17 -3.96116283E-16 -1.09200118E-02 -2.85679993E-16
 -8.29841380E-17 -1.91689455E-16 -2.14479459E-16  3.55130736E-17  2.34686973E-17
  4.13357820E-03 -4.89101347E-01 -5.01233088E-01  8.24421662E-01  5.89249110E-16
  3.29532805E-15  1.80232965E-01  2.75245003E-15 -1.22424350E-15  1.02802008E-01
 -5.70079615E-15 -2.61253279E-15 -2.27974095E-01 -4.60694086E-02  1.71658567E-15
  2.33250892E-15  1.46486129E-16 -3.86632355E-16 -2.55849291E-02 -1.18128402E-14
 -3.26351484E-15 -2.09999557E-17 -1.10086492E-16 -9.49545114E-03 -1.96912701E-15
  1.22759267E-16  1.74071917E-17 -3.81583740E-16 -2.46155273E-17  1.10939456E-17
  4.13357820E-03 -4.89101347E-01 -5.01233088E-01  8.24421662E-01 -9.20172551E-16
 -1.38263685E-15 -1.80232965E-01  8.59622796E-15  6.76653025E-15 -1.02802008E-01
  8.37776091E-16 -2.12846292E-15  2.27974095E-01 -4.60694086E-02  1.11555764E-15
 -1.39041164E-16  1.24733870E-17  3.46527244E-16 -2.55849291E-02  1.71867795E-15
 -2.50463462E-16  4.76205055E-16 -3.04641779E-16  9.49545114E-03 -4.56137337E-16
  4.04534772E-16 -1.91305705E-16 -5.27446878E-17  2.16312878E-17  3.04441551E-17
 -5.69601860E-02  4.47087086E-01  5.83390861E-01 -1.03963623E+00 -8.46136333E-15
 -2.35434207E-15 -2.09901110E-01  4.35080635E-15  8.23281580E-15  7.18682366E-02
  1.71489485E-15 -8.19999482E-15  1.76137223E-01  1.83352260E-02 -2.58108252E-15
  1.85284060E-15 -3.90508101E-16  1.84636978E-16  5.30289315E-02 -2.92063538E-14
  1.50804104E-15 -4.95803495E-17  3.80352058E-16  1.31426742E-02 -4.14665111E-15
  3.45992676E-16 -1.75682834E-17  4.43768925E-16  4.26137493E-17 -7.38585943E-19
  5.69601860E-02 -4.47087086E-01 -5.83390861E-01  1.03963623E+00 -1.22298125E-14
  6.35791631E-15 -2.09901110E-01  1.33981403E-14 -4.82363380E-16  7.18682366E-02
  1.56622774E-14 -4.22194042E-15  1.76137223E-01 -1.83352260E-02  8.51927095E-15
 -2.23868693E-15 -1.63103194E-16 -6.10614762E-17 -5.30289315E-02  1.20019919E-14
 -2.07017059E-15 -1.78057303E-17  7.49708723E-16  1.31426742E-02 -2.56625505E-15
  1.04659246E-15  1.18036109E-16  5.28726545E-17 -2.33899420E-17 -2.64456649E-17
  1.11909305E-14  3.29670865E-14  1.61109428E-14 -4.21746616E-14  2.30908817E-01
 -1.12168351E-01 -1.25388941E-13  7.39816558E-02 -3.59379968E-02  5.78840380E-14
 -3.85110619E-01  1.87074810E-01  1.78886523E-13 -9.77909894E-14  1.99660729E-01
 -9.69889974E-02  2.42448072E-15  3.92541991E-14 -1.02613304E-13  2.36112556E-01
 -1.14696166E-01  6.02591029E-15  6.26221796E-14 -2.81468425E-14  6.78801035E-02
 -3.29740516E-02  1.64054256E-16  8.68637876E-15 -9.44964278E-17  1.43208554E-16
  1.49423110E-14 -8.22234408E-15 -3.58934715E-14 -1.25829505E-14  2.30908817E-01
 -1.12168351E-01  1.06276138E-13  7.39816558E-02 -3.59379968E-02 -2.88162879E-14
 -3.85110619E-01  1.87074810E-01 -1.43551899E-13 -9.50452962E-14 -1.99660729E-01
  9.69889974E-02  2.86256919E-15  2.41761116E-14 -1.22050455E-13 -2.36112556E-01
  1.14696166E-01  5.86349552E-15  5.29470559E-14  3.66840937E-14  6.78801035E-02
 -3.29740516E-02 -1.04147832E-15 -8.83640031E-15  7.28182816E-17  2.67498037E-17
  1.49608788E-13  2.02346355E-13 -8.62676960E-14 -2.02074123E-13 -1.12168351E-01
 -2.30908817E-01 -6.46882004E-13 -3.59379968E-02 -7.39816558E-02  2.39998826E-13
  1.87074810E-01  3.85110619E-01  9.59720225E-13 -5.61798115E-13 -9.69889974E-02
 -1.99660729E-01  2.01441415E-15 -6.59416178E-15 -6.82779715E-13 -1.14696166E-01
 -2.36112556E-01  3.09389423E-15  1.57104498E-14 -1.88735901E-13 -3.29740516E-02
 -6.78801035E-02  3.91273193E-16  1.46964327E-15 -1.46498708E-16  6.90172649E-17
  1.31927423E-13  1.76987665E-13 -7.35294797E-14 -2.76262229E-13 -1.12168351E-01
 -2.30908817E-01  6.50008431E-13 -3.59379968E-02 -7.39816558E-02 -2.01234935E-13
  1.87074810E-01  3.85110619E-01 -9.37920644E-13 -5.69096842E-13  9.69889974E-02
  1.99660729E-01  1.25687022E-15  4.27096494E-15 -7.07982995E-13  1.14696166E-01
  2.36112556E-01  2.56797234E-15  8.06102090E-15  1.99277871E-13 -3.29740516E-02
 -6.78801035E-02 -1.60494819E-16 -1.23009213E-15  8.08822698E-17 -1.07319994E-16
  5.99310002E-02  8.17170802E-02 -3.26717710E-02 -1.02073789E-01  1.72933883E-13
  5.85429644E-13 -2.72410986E-01  4.91177596E-14  1.89883250E-13  9.31347355E-02
 -2.76462585E-13 -9.81072628E-13  3.99033899E-01 -2.40428820E-01  1.48668990E-13
  5.11390605E-13  1.68717946E-15  3.11320166E-16 -2.94688034E-01  1.79811604E-13
  6.06290995E-13  3.70123206E-15  3.35211575E-16 -8.29910751E-02  4.98647604E-14
  1.73832745E-13  6.01401087E-16 -1.30575794E-16  3.06959604E-17 -1.04363014E-17
  5.99310002E-02  8.17170802E-02 -3.26717710E-02 -1.02073789E-01  1.73891377E-13
  5.88005030E-13  2.72410986E-01  5.44337447E-14  1.91374592E-13 -9.31347355E-02
 -2.94653592E-13 -9.89274949E-13 -3.99033899E-01 -2.40428820E-01 -1.49748162E-13
 -5.12746130E-13  1.94139882E-15 -2.01091801E-17 -2.94688034E-01 -1.76983697E-13
 -6.06851903E-13  4.50284007E-15 -3.42312348E-16  8.29910751E-02  5.07381521E-14
  1.74016075E-13 -7.14804871E-16 -3.22149439E-17  2.04476913E-17  6.11173537E-17
  1.31113364E-14  2.28083712E-14 -8.72484644E-15  5.31566273E-14  1.74437213E-14
 -2.45984004E-14 -9.09905503E-15  1.04940284E-14  7.21268008E-15  3.82567084E-14
 -4.08939184E-14  2.57571667E-14  3.02247646E-14 -5.16800750E-15  2.20761035E-14
 -1.94378392E-14 -1.27516531E-01 -1.79241375E-01  2.91107413E-14  2.18342133E-14
 -1.72324881E-14 -2.78140755E-01 -3.90963673E-01  1.25761795E-14  7.60000919E-15
 -4.16511962E-15 -4.48982074E-02 -6.31103778E-02  4.56572794E-17  1.50053755E-16
 -2.51418547E-14 -4.52842961E-14  7.68984933E-15 -4.23192627E-14  1.21483038E-14
 -6.77691303E-15  1.51287196E-15  1.77510761E-14 -9.93349306E-15  3.77441142E-14
 -3.95559290E-14  2.12868570E-14  1.22405630E-14 -4.21406110E-15 -2.32932669E-14
  1.61777104E-14 -1.27516531E-01 -1.79241375E-01 -1.52084662E-14 -2.60442952E-14
  1.79332857E-14 -2.78140755E-01 -3.90963673E-01  6.81686811E-16  7.08566690E-15
 -4.81296329E-15  4.48982074E-02  6.31103778E-02  3.45514484E-17  4.65873797E-17
 -9.62979017E-15 -1.76970286E-14  5.80513505E-15 -3.74154698E-14 -9.31490832E-15
  1.64384850E-14  3.61514562E-15 -8.40965239E-15 -6.00019522E-15 -2.79004965E-14
  2.67553054E-14 -1.28384956E-14 -1.76877860E-14 -2.24530837E-16 -1.15093035E-14
  9.72884384E-15 -1.79241375E-01  1.27516531E-01 -2.44823320E-14 -1.09754925E-14
  7.95176513E-15 -3.90963673E-01  2.78140755E-01 -1.09130563E-14 -4.60599278E-15
  7.14185799E-16 -6.31103778E-02  4.48982074E-02 -5.05968347E-17  1.82315947E-16
  2.02596762E-14  3.62617092E-14 -6.54018277E-15  2.78621633E-14 -7.36101514E-15
  3.37558694E-15  1.17829460E-15 -1.33868775E-14  7.27171124E-15 -2.97505550E-14
  2.50844820E-14 -1.21985982E-14 -1.20348029E-14  1.79895328E-15  1.38116850E-14
 -7.59975133E-15 -1.79241375E-01  1.27516531E-01  7.60961993E-15  1.64756280E-14
 -7.82058504E-15 -3.90963673E-01  2.78140755E-01 -6.71655622E-16 -4.66069948E-15
  2.77995558E-15  6.31103778E-02 -4.48982074E-02 -6.40278309E-17 -5.72035436E-17
  5.71413389E-16 -2.18551841E-15 -4.71848569E-15  2.08620177E-14  3.63507605E-01
 -8.38839079E-02 -4.48128604E-15  2.26804219E-01 -5.23378986E-02  9.77684419E-15
 -3.35922583E-01  7.75183204E-02  9.68979869E-15  5.61920587E-15 -2.01111548E-01
  4.64089948E-02 -1.80188710E-16  9.68560014E-15  7.87289863E-15 -2.94438793E-01
  6.79454191E-02 -1.42177986E-16 -7.71117623E-15  2.09573274E-15 -3.96932455E-03
  9.15971083E-04 -5.41928712E-16 -6.09728716E-16 -5.39641493E-17  6.22832859E-17
 -2.85229073E-14 -3.32078137E-14  3.20679332E-14 -1.31522740E-14  3.63507605E-01
 -8.38839079E-02  1.11573296E-14  2.26804219E-01 -5.23378986E-02  3.52267445E-15
 -3.35922583E-01  7.75183204E-02 -2.28583673E-15 -8.15956589E-16  2.01111548E-01
 -4.64089948E-02 -8.56689045E-16 -3.95901737E-15  4.61261071E-16  2.94438793E-01
 -6.79454191E-02 -2.41867837E-15 -6.91472800E-15  1.94444700E-15 -3.96932455E-03
  9.15971083E-04  4.94328072E-16  1.02185616E-15 -5.29332727E-17 -2.11020332E-16
 -1.47819097E-14 -2.65986354E-14  5.89944825E-15 -2.29857552E-14  8.38839079E-02
  3.63507605E-01  1.44203001E-14  5.23378986E-02  2.26804219E-01 -4.85658638E-14
 -7.75183204E-02 -3.35922583E-01  7.09474533E-15 -2.12928158E-16 -4.64089948E-02
 -2.01111548E-01 -7.39222342E-16  5.18439617E-16 -1.53984651E-14 -6.79454191E-02
 -2.94438793E-01  1.00276137E-15 -9.09417964E-16 -7.40641162E-15 -9.15971083E-04
 -3.96932455E-03  3.01572732E-16 -1.44397350E-16  2.64840132E-17 -9.03549372E-17
  7.43758269E-15  2.20334202E-14  7.18983498E-15  1.47814902E-14  8.38839079E-02
  3.63507605E-01  4.50004599E-15  5.23378986E-02  2.26804219E-01 -3.00364707E-14
 -7.75183204E-02 -3.35922583E-01 -1.63627238E-14 -4.04073276E-15  4.64089948E-02
  2.01111548E-01  1.31375830E-15  1.66318818E-15  1.37572602E-14  6.79454191E-02
  2.94438793E-01  2.51537503E-15  5.52502150E-15 -5.28163623E-15 -9.15971083E-04
 -3.96932455E-03 -7.12727846E-16 -4.38006093E-16  1.14244334E-16  4.83348544E-17
  4.77948100E-15  5.54315891E-15 -1.05282741E-14  3.88028946E-15  4.53963855E-01
 -1.52499073E-02 -2.26442285E-14 -1.38736298E-01  4.66053777E-03  4.62384719E-14
 -1.71175331E-01  5.75025503E-03  1.87634544E-14  2.28994502E-14  3.18146151E-01
 -1.06874132E-02  1.04581419E-12 -5.16235415E-13  1.05628668E-13  4.39392886E-01
 -1.47604280E-02  1.38311096E-12 -6.61901127E-13 -1.06978204E-15 -5.05412095E-02
  1.69781967E-03 -7.34967952E-14  3.57769422E-14 -1.23166039E-16 -5.24774221E-17
 -6.73956204E-14 -1.38739970E-13 -4.82156133E-15  7.43282668E-14 -4.53963855E-01
  1.52499073E-02  9.71652541E-14  1.38736298E-01 -4.66053777E-03 -2.37766479E-14
  1.71175331E-01 -5.75025503E-03 -3.27220035E-14  1.33602927E-14  3.18146151E-01
 -1.06874132E-02 -1.04680771E-12  5.06949123E-13 -3.01968156E-14  4.39392886E-01
 -1.47604280E-02 -1.38088222E-12  6.68002111E-13 -2.03001385E-15  5.05412095E-02
 -1.69781967E-03 -7.45349147E-14  3.63165810E-14  1.34475060E-16  8.15701584E-17
 -1.10637128E-13 -5.41713906E-14  2.36580439E-13 -3.39454211E-13  1.52499073E-02
  4.53963855E-01  3.17141136E-13 -4.66053777E-03 -1.38736298E-01 -2.72088004E-13
 -5.75025503E-03 -1.71175331E-01 -1.29519789E-13  1.98001858E-13  1.06874132E-02
  3.18146151E-01 -2.49337122E-14  1.74203888E-13  2.03469271E-13  1.47604280E-02
  4.39392886E-01 -3.68224724E-14  2.69044741E-13 -6.81736810E-14 -1.69781967E-03
 -5.05412095E-02  1.60725779E-15 -1.66189216E-14 -9.72969659E-17  1.53248587E-16
  9.79404408E-14  5.54203725E-14 -1.92871867E-13  3.26480794E-13 -1.52499073E-02
 -4.53963855E-01  2.72957584E-13  4.66053777E-03  1.38736298E-01 -2.40955136E-13
  5.75025503E-03  1.71175331E-01 -1.27489215E-13 -2.00448777E-13  1.06874132E-02
  3.18146151E-01  2.61154881E-14 -1.97469622E-13 -2.33982425E-13  1.47604280E-02
  4.39392886E-01  3.66662319E-14 -2.67041523E-13 -5.51546963E-14  1.69781967E-03
  5.05412095E-02  1.57069636E-15 -1.03534135E-14 -1.03147048E-16 -4.85042844E-18
  5.01674706E-14  8.60672385E-14 -3.43451077E-14  2.41458035E-13 -6.85184360E-15
  1.61762356E-13 -3.30119575E-14  1.98219373E-14 -1.66625625E-14  1.54246535E-13
 -1.90561811E-14 -8.96683429E-14  1.21141192E-13 -3.20809329E-14  1.01189379E-14
  1.31658391E-13 -1.66006680E-01 -3.44335035E-01  1.37657785E-13 -1.01306189E-14
  2.00384805E-13 -2.19069108E-01 -4.54398393E-01  4.01712796E-14 -3.51720874E-15
 -1.99707888E-14  1.17130619E-02  2.42955137E-02 -3.17637729E-16  1.86683339E-16
 -1.12259575E-13 -1.95487511E-13  4.22445495E-14 -1.85409508E-13 -2.26105545E-14
 -2.08104531E-13  8.24094036E-15  4.52165724E-14  6.64993403E-14  1.42198894E-13
 -2.59791918E-14  6.89362750E-14  7.43180650E-14  3.01506773E-15  1.91140689E-15
  1.42758380E-13  1.66006680E-01  3.44335035E-01 -6.60425855E-14 -2.72491397E-15
  1.95741561E-13  2.19069108E-01  4.54398393E-01 -4.04556750E-15  1.44557738E-15
  2.46012674E-14  1.17130619E-02  2.42955137E-02 -1.41315864E-16 -5.84600171E-17
 -5.47656761E-14 -2.99216826E-14  9.14649640E-14  3.09180982E-12 -1.38617855E-12
  1.39572613E-13 -1.47278197E-13  4.10506531E-13 -4.02562972E-14  7.68889511E-13
  5.17912416E-13 -4.64078296E-14  1.35187369E-12 -2.69971467E-14 -1.02833204E-12
  5.21150120E-14  3.44335035E-01 -1.66006680E-01  5.20196012E-13 -1.29007127E-12
  2.49603981E-13  4.54398393E-01 -2.19069108E-01  1.14849864E-13  1.93716561E-13
  2.87476503E-14 -2.42955137E-02  1.17130619E-02 -3.07800573E-16 -8.41318588E-17
 -2.53736689E-13 -4.15314317E-13  1.64771782E-13 -2.85465647E-12  1.36634093E-12
 -1.54785745E-13  3.88653059E-14 -4.22715141E-13 -4.06306758E-15  5.56735244E-13
 -5.27463015E-13  5.67391449E-14  1.45174872E-12  3.16884548E-14 -8.98619589E-13
  2.27683173E-13 -3.44335035E-01  1.66006680E-01 -4.98479127E-13 -1.38245536E-12
  1.26704755E-13 -4.54398393E-01  2.19069108E-01  2.33518070E-14 -1.09964077E-13
  7.88660558E-14 -2.42955137E-02  1.17130619E-02  8.89753265E-17 -5.46264310E-17