   This run of MOLCAS is using the pymolcas driver

                             OPE
                             OPE          NMOL  CASOP  ENMOLC A   SO
                 OPE        NMOLC        AS  OP EN  MO LC     AS  OP
                OPENM       OL CA        SO  PE NM  OL CA     SOP EN
                OP EN      MO   LC       AS  OP ENMOL  CASO   PENMOL
                OP  EN     MO   LC       AS  OP EN     MO     LC ASO
               OP   E  NMOL  C  AS       OP  EN MO     LC     AS  OP
               OP  E   NMO   LC AS        OPEN  MO     LCASOP EN   M
               O  PEN   MO  LCA  SO
            OPE   NMO   L   CAS    OP
        OPENMOL  CASOP     ENMOL   CASOPE
     OPENMOLCA   SOPENMOLCASOPEN   MOLCASOPE
    OPENMOLCAS   OP           EN   MOL    CAS
    OPENMOLCAS       OP  ENM        O     LCA
    OPENMOLCAS    OPEN  MOLCASO     P  E  NMO
    OPENMOLCAS     OP               E  N  MOL
    OPENMOLCA   SO           PENM   O  L  CAS    OPEN    MO    LCAS
    OPENMOLCA   SOP           ENM   O  L  CAS   OP  EN  MOLC  AS   O
    OPENMOLCA   SOPE           NM      O  LCA   S      OP  EN MO
    OPENMOLC                AS         O  PEN   M      OL  CA  SOPE
    OPENMO        LCASOPE  NMOL        C  ASO   P      ENMOLC     AS
    OPE     NMO      LCA  SO     P     E   NM   OL  CA SO  PE N   MO
          OPENMOLCA            SOPE   NMO        LCAS  O    P  ENMO
     OPENMOLCASOPENMOLCASOPENMOLCASOPENMOLCA
        OPENMOLCASOPENMOLCASOPENMOLCASOPE
            OPENMOLCASOPENMOLCASOPENM
               OPENMOLCASOPENMOLCA        version: o822a959167d23c ?
                   OPENMOLCASO
                       OPE                tag:

 OpenMolcas is free software; you can redistribute it and/or modify it
 under the terms of the GNU Lesser General Public License version 2.1.
 OpenMolcas is distributed in the hope that it will be useful, but it
 is provided "as is" and without any express or implied warranties.
 For more details see the full text of the license in the file
 LICENSE or in <http://www.gnu.org/licenses/>.

                 Copyright (C) The OpenMolcas Authors
           For the author list and the recommended citation,
                   consult the file CONTRIBUTORS.md

           *************************************************
           * pymolcas version py2.28                       *
           *   build c4a6d18ded8cb6cad61d2372a9abd97c      *
           *   (after the EMIL interpreter by V. Veryazov) *
           *************************************************

configuration info
------------------
Host name: mgt (Linux)
C Compiler ID: GNU
C flags: -std=gnu99
Fortran Compiler ID: GNU
Fortran flags: -fno-aggressive-loop-optimizations -cpp -fdefault-integer-8 -fmax-stack-var-size=1048576
Definitions: _MOLCAS_;_I8_;_LINUX_
Parallel: OFF (GA=OFF)


   -------------------------------------------------------------------------------------------------------
  |
  |           Project: n2
  |    Submitted from: /public/home/xzzeng/work/HQC/N2/cc-pvtz/NO/PES/entropy/1.8/results/work_dir/n2/dmrg
  |      Scratch area: /public/home/xzzeng/work/HQC/N2/cc-pvtz/NO/PES/entropy/1.8/results/scratch
  |   Save outputs to: /public/home/xzzeng/work/HQC/N2/cc-pvtz/NO/PES/entropy/1.8/results/work_dir/n2/dmrg
  |            Molcas: /public/home/xzzeng/soft/OpenMolcas/build
  |
  | Scratch area is NOT empty
  |
  |    MOLCAS_DRIVER = /public/home/xzzeng/soft/OpenMolcas/build/pymolcas
  |    MOLCAS_NPROCS = 1
  |    MOLCAS_SOURCE = /public/home/xzzeng/soft/OpenMolcas
  | MOLCAS_STRUCTURE = 0
  |
   -------------------------------------------------------------------------------------------------------

++ ---------   Input file   ---------

&DMRGSCF
ActiveSpaceOptimizer = QCMaquis
DMRGSettings
  nsweeps = 5
  max_bond_dimension = 300
EndDMRGSettings
OOptimizationSettings
  SPIN    = 1
  NACTEL  = 10
  FILEORB = /public/home/xzzeng/work/HQC/N2/cc-pvtz/NO/PES/entropy/1.8/results/work_dir/n2/dmrg/n2.scf.h5_sel
  TYPEINDEX
  CIONLY
EndOOptimizationSettings

-- ----------------------------------

*** symbolic link created: INPORB -> n2.ScfOrb
--- Start Module: dmrgscf at Tue Apr  9 00:42:24 2024 ---

()()()()()()()()()()()()()()()()()()()()()()()()()()()()()()()()()()()()()()()()()()()()()()()()()()

                                              &DMRGSCF

                                   only a single process is used
                       available to each process: 12 GB of memory, 1 thread?
                                             pid: 61908
()()()()()()()()()()()()()()()()()()()()()()()()()()()()()()()()()()()()()()()()()()()()()()()()()()


      DMRGSCF: active space solver is set to qcmaquis
      -------                                --------


      Header of the ONEINT file:
      --------------------------
      
      Integrals generated by Gateway/Seward, Tue Apr  9 00:42:21 2024


      OrdInt status: non-squared


      Cartesian coordinates in Angstrom:
      -----------------------------------------------------
      No.  Label        X            Y            Z        
      -----------------------------------------------------
       1   N1         0.00000000   0.00000000   0.00000000
       2   N2         0.00000000   0.00000000   1.80000000
      -----------------------------------------------------
      Nuclear repulsion energy =   14.40537963

++    Wave function specifications:
      -----------------------------

      Number of closed shell electrons           4
      Number of electrons in active shells      10
      Max number of holes in RAS1 space          0
      Max nr of electrons in RAS3 space          0
      Number of inactive orbitals                2
      Number of active orbitals                  8
      Number of secondary orbitals              50
      Spin quantum number                      0.0
      State symmetry                             1
--

++    Orbital specifications:
      -----------------------

      Symmetry species                           1
                                                 a
      Frozen orbitals                            0
      Inactive orbitals                          2
      Active orbitals                            8
      RAS1 orbitals                              0
      RAS2 orbitals                              8
      RAS3 orbitals                              0
      Secondary orbitals                        50
      Deleted orbitals                           0
      Number of basis functions                 60
--

++    DMRG specifications:
      ----------------------------

      Number of renormalized states              300
      (Max) number of sweeps                     5
      Convergence threshold (sweep tolerance)    0.100E-07
      Jacobi-Davidson threshold                  0.100E-10
      SVD truncation threshold (initial)         1e-50
      SVD truncation threshold (final)           0.100E-10
      Number of root(s) required                 1
      Root chosen for geometry opt.              1
      DMRG root used                             1
         
--

++    Optimization specifications:
      ----------------------------

      RASSCF algorithm: LK Cholesky
      Maximum number of macro iterations       200
      Maximum number of SX iterations          100
      Threshold for RASSCF energy            1.000E-08
      Threshold for max MO rotation          1.000E-01
      Threshold for max BLB element          1.000E-04
      Level shift parameter                  5.000E-01
      Make Quasi-Newton update
--

      The MO-coefficients are taken from the file:
      /public/home/xzzeng/work/HQC/N2/cc-pvtz/NO/PES/entropy/1.8/results/work_dir/n2/dmrg/n2.scf.h5_sel                                                                                                                                                               

      Total molecular charge    0.00

      ************************************************************************************************************************
      *                                                                                                                      *
      *                                            Wave function control section                                             *
      *                                                                                                                      *
      ************************************************************************************************************************


                                         DMRGCI only, no orbital optimization will be done.
                                         --------------------------------------------------

                                             Please cite for the QCMaquis-Molcas driver:

                                    Freitag L.; Keller S.; Knecht S.; Lindh R.; Ma Y.; 
                                    Stein C. J. and Reiher M., in preparation. (2018).
                                    ---------------------------------------------------------------

                                             Please cite for the QCMaquis DMRG software:

                                    S. Keller, M. Dolfi, M. Troyer, M. Reiher,
                                    J. Chem. Phys. 143, 244118 (2015)
                                    ---------------------------------------------------------------



      DMRGCI energy              :    -108.7951199717
      Total time spent (hh:mm:ss):            0:00:04


      Natural orbitals and occupation numbers for root  1
      sym 1:   1.995898   1.992038   1.854937   1.585724   1.585724   0.418176   0.418176   0.149328

      ************************************************************************************************************************
      *                                                                                                                      *
      *                                                    Final results                                                     *
      *                                                                                                                      *
      ************************************************************************************************************************


++    Wave function specifications:
      -----------------------------

      Number of closed shell electrons           4
      Number of electrons in active shells      10
      Max number of holes in RAS1 space          0
      Max nr of electrons in RAS3 space          0
      Number of inactive orbitals                2
      Number of active orbitals                  8
      Number of secondary orbitals              50
      Spin quantum number                      0.0
      State symmetry                             1
--

++    Orbital specifications:
      -----------------------

      Symmetry species                           1
                                                 a
      Frozen orbitals                            0
      Inactive orbitals                          2
      Active orbitals                            8
      RAS1 orbitals                              0
      RAS2 orbitals                              8
      RAS3 orbitals                              0
      Secondary orbitals                        50
      Deleted orbitals                           0
      Number of basis functions                 60
--

++    DMRG specifications:
      ----------------------------

      Number of renormalized states              300
      (Max) number of sweeps                     5
      Convergence threshold (sweep tolerance)    0.100E-07
      Jacobi-Davidson threshold                  0.100E-10
      SVD truncation threshold (initial)         1e-50
      SVD truncation threshold (final)           0.100E-10
      Number of root(s) required                 1
      DMRG root used                             1
      highest root included in the DMRG          1
      Root passed to geometry opt.               1
--

++    Final optimization conditions:
      ------------------------------

      Average CI energy                            -108.79511997
--


      Final state energy(ies):
      ------------------------

::    RASSCF root number  1 Total energy:   -108.79511997

++    Molecular orbitals:
      -------------------

      Pseudonatural active orbitals and approximate occupation numbers




      Molecular orbitals for symmetry species 1: a  


      Orbital                 1         2         3         4         5         6         7         8         9        10
      Energy             0.0000    0.0000    0.0000    0.0000    0.0000    0.0000    0.0000    0.0000    0.0000    0.0000
      Occ. No.           0.0000    0.0000    0.0000    0.0000    0.0000    0.0000    0.0000    0.0000    0.0000    0.0000

     1 N1     1s         0.7026   -0.7126   -0.0008   -0.0035    0.0006    0.0000   -0.0000   -0.0000   -0.0000    0.0029
     2 N1     2s         0.0004    0.0004    0.6817   -0.7447    0.1587   -0.0000    0.0000    0.0000   -0.0000    0.2884
     3 N1     *s        -0.0012    0.0008    0.0035   -0.0098    0.0098   -0.0000   -0.0000    0.0000    0.0000    0.0047
     4 N1     *s        -0.0003   -0.0005   -0.0482    0.0258    0.0472   -0.0000    0.0000    0.0000    0.0000    0.2784
     5 N1     2px        0.0000   -0.0000    0.0000   -0.0000   -0.0000    0.5793   -0.2112   -0.2437   -0.6355    0.0000
     6 N1     *px       -0.0000    0.0000   -0.0000   -0.0000   -0.0000   -0.0095    0.0035    0.0089    0.0231    0.0000
     7 N1     *px       -0.0000    0.0000    0.0000   -0.0000   -0.0000    0.0623   -0.0227   -0.0511   -0.1332   -0.0000
     8 N1     2py        0.0000   -0.0000   -0.0000    0.0000   -0.0000   -0.2112   -0.5793    0.6355   -0.2437    0.0000
     9 N1     *py       -0.0000    0.0000    0.0000   -0.0000    0.0000    0.0035    0.0095   -0.0231    0.0089   -0.0000
    10 N1     *py        0.0000    0.0000    0.0000   -0.0000   -0.0000   -0.0227   -0.0623    0.1332   -0.0511    0.0000
    11 N1     2pz        0.0026   -0.0029    0.0744    0.1358   -0.6396    0.0000    0.0000    0.0000    0.0000    0.7143
    12 N1     *pz       -0.0017    0.0025    0.0084   -0.0020   -0.0028    0.0000    0.0000    0.0000   -0.0000   -0.0398
    13 N1     *pz       -0.0005    0.0005   -0.0075   -0.0136    0.0004   -0.0000    0.0000    0.0000    0.0000    0.4021
    14 N1     *d2-      -0.0000    0.0000   -0.0000    0.0000   -0.0000    0.0000   -0.0000   -0.0000   -0.0000    0.0000
    15 N1     *d2-       0.0000   -0.0000   -0.0000    0.0000   -0.0000    0.0000    0.0000    0.0000   -0.0000    0.0000
    16 N1     *d1-      -0.0000    0.0000    0.0000   -0.0000   -0.0000   -0.0013   -0.0037   -0.0018    0.0007    0.0000
    17 N1     *d1-       0.0000   -0.0000    0.0000    0.0000    0.0000   -0.0088   -0.0242   -0.0102    0.0039   -0.0000
    18 N1     *d0       -0.0000   -0.0001    0.0032    0.0021   -0.0066    0.0000   -0.0000   -0.0000    0.0000   -0.0103
    19 N1     *d0        0.0003    0.0003    0.0120    0.0040   -0.0238   -0.0000    0.0000    0.0000    0.0000   -0.0034
    20 N1     *d1+       0.0000    0.0000    0.0000    0.0000   -0.0000    0.0037   -0.0013    0.0007    0.0018    0.0000
    21 N1     *d1+       0.0000    0.0000    0.0000   -0.0000   -0.0000    0.0242   -0.0088    0.0039    0.0102    0.0000
    22 N1     *d2+      -0.0000    0.0000    0.0000   -0.0000    0.0000   -0.0000    0.0000    0.0000    0.0000   -0.0000
    23 N1     *d2+       0.0000   -0.0000    0.0000   -0.0000   -0.0000    0.0000    0.0000   -0.0000   -0.0000    0.0000
    24 N1     *f3-      -0.0000    0.0000   -0.0000   -0.0000   -0.0000   -0.0000   -0.0000    0.0000   -0.0000    0.0000
    25 N1     *f2-       0.0000    0.0000    0.0000   -0.0000   -0.0000    0.0000   -0.0000    0.0000   -0.0000    0.0000
    26 N1     *f1-      -0.0000   -0.0000   -0.0000    0.0000   -0.0000   -0.0011   -0.0030   -0.0017    0.0007    0.0000
    27 N1     *f0        0.0001    0.0002    0.0022    0.0005   -0.0023   -0.0000    0.0000   -0.0000    0.0000   -0.0008
    28 N1     *f1+      -0.0000   -0.0000    0.0000   -0.0000   -0.0000    0.0030   -0.0011    0.0007    0.0017    0.0000
    29 N1     *f2+      -0.0000    0.0000   -0.0000   -0.0000    0.0000   -0.0000   -0.0000   -0.0000    0.0000   -0.0000
    30 N1     *f3+      -0.0000    0.0000    0.0000   -0.0000    0.0000   -0.0000    0.0000    0.0000    0.0000    0.0000
    31 N2     1s         0.7129    0.7023   -0.0008    0.0036    0.0006   -0.0000    0.0000    0.0000    0.0000   -0.0030
    32 N2     2s         0.0004   -0.0004    0.6817    0.7447    0.1587    0.0000   -0.0000   -0.0000    0.0000   -0.2884
    33 N2     *s        -0.0012   -0.0008    0.0035    0.0098    0.0098    0.0000   -0.0000    0.0000    0.0000   -0.0047
    34 N2     *s        -0.0003    0.0005   -0.0482   -0.0258    0.0472    0.0000   -0.0000   -0.0000   -0.0000   -0.2784
    35 N2     2px        0.0000    0.0000   -0.0000   -0.0000    0.0000    0.5794   -0.2112    0.2437    0.6355    0.0000
    36 N2     *px       -0.0000   -0.0000   -0.0000   -0.0000   -0.0000   -0.0095    0.0035   -0.0089   -0.0231    0.0000
    37 N2     *px        0.0000   -0.0000   -0.0000   -0.0000   -0.0000    0.0623   -0.0227    0.0511    0.1332   -0.0000
    38 N2     2py       -0.0000   -0.0000   -0.0000   -0.0000   -0.0000   -0.2112   -0.5794   -0.6355    0.2437    0.0000
    39 N2     *py        0.0000    0.0000    0.0000    0.0000   -0.0000    0.0035    0.0095    0.0231   -0.0089   -0.0000
    40 N2     *py        0.0000    0.0000    0.0000    0.0000    0.0000   -0.0227   -0.0623   -0.1332    0.0511    0.0000
    41 N2     2pz       -0.0026   -0.0029   -0.0744    0.1357    0.6396    0.0000   -0.0000   -0.0000   -0.0000    0.7143
    42 N2     *pz        0.0018    0.0024   -0.0084   -0.0020    0.0028    0.0000   -0.0000   -0.0000    0.0000   -0.0398
    43 N2     *pz        0.0005    0.0005    0.0075   -0.0136   -0.0004   -0.0000    0.0000    0.0000    0.0000    0.4022
    44 N2     *d2-       0.0000    0.0000   -0.0000   -0.0000   -0.0000   -0.0000   -0.0000    0.0000   -0.0000    0.0000
    45 N2     *d2-      -0.0000   -0.0000   -0.0000   -0.0000    0.0000    0.0000    0.0000    0.0000   -0.0000   -0.0000
    46 N2     *d1-       0.0000   -0.0000    0.0000   -0.0000   -0.0000    0.0013    0.0037   -0.0018    0.0007    0.0000
    47 N2     *d1-      -0.0000   -0.0000   -0.0000    0.0000    0.0000    0.0088    0.0242   -0.0102    0.0039    0.0000
    48 N2     *d0       -0.0000    0.0001    0.0032   -0.0021   -0.0066   -0.0000    0.0000    0.0000    0.0000    0.0103
    49 N2     *d0        0.0002   -0.0003    0.0120   -0.0040   -0.0238    0.0000   -0.0000    0.0000   -0.0000    0.0034
    50 N2     *d1+      -0.0000   -0.0000    0.0000    0.0000    0.0000   -0.0037    0.0013    0.0007    0.0018   -0.0000
    51 N2     *d1+       0.0000    0.0000    0.0000    0.0000   -0.0000   -0.0242    0.0088    0.0039    0.0102   -0.0000
    52 N2     *d2+      -0.0000   -0.0000   -0.0000    0.0000    0.0000   -0.0000    0.0000    0.0000   -0.0000   -0.0000
    53 N2     *d2+      -0.0000   -0.0000   -0.0000   -0.0000    0.0000   -0.0000    0.0000   -0.0000   -0.0000    0.0000
    54 N2     *f3-      -0.0000   -0.0000   -0.0000   -0.0000   -0.0000    0.0000    0.0000   -0.0000    0.0000    0.0000
    55 N2     *f2-       0.0000   -0.0000   -0.0000   -0.0000    0.0000   -0.0000   -0.0000   -0.0000   -0.0000    0.0000
    56 N2     *f1-       0.0000    0.0000   -0.0000   -0.0000    0.0000   -0.0011   -0.0030    0.0017   -0.0007   -0.0000
    57 N2     *f0       -0.0001    0.0002   -0.0022    0.0005    0.0023   -0.0000    0.0000    0.0000    0.0000   -0.0008
    58 N2     *f1+      -0.0000   -0.0000   -0.0000    0.0000    0.0000    0.0030   -0.0011   -0.0007   -0.0017   -0.0000
    59 N2     *f2+      -0.0000   -0.0000   -0.0000    0.0000    0.0000    0.0000    0.0000    0.0000    0.0000    0.0000
    60 N2     *f3+       0.0000   -0.0000   -0.0000    0.0000    0.0000    0.0000   -0.0000   -0.0000   -0.0000    0.0000


      Orbital                11        12        13        14        15        16        17        18        19        20
      Energy             0.0000    0.0000    0.0000    0.0000    0.0000    0.0000    0.0000    0.0000    0.0000    0.0000
      Occ. No.           0.0000    0.0000    0.0000    0.0000    0.0000    0.0000    0.0000    0.0000    0.0000    0.0000

     1 N1     1s         0.0437    0.0000    0.0000   -0.2224   -0.0000   -0.0000    0.2615   -0.4126    0.0000   -0.0000
     2 N1     2s         0.3248    0.0000    0.0000   -1.1259   -0.0000   -0.0000    1.2322   -1.8639    0.0000   -0.0000
     3 N1     *s        -0.0287   -0.0000   -0.0000    0.0583   -0.0000    0.0000   -0.0797    0.0557   -0.0000    0.0000
     4 N1     *s         0.5005   -0.0000   -0.0000    1.3066    0.0000    0.0000   -1.0950    3.1884   -0.0000    0.0000
     5 N1     2px        0.0000   -0.4959    0.1269   -0.0000    0.0293   -0.4785   -0.0000    0.0000    0.0572   -0.1211
     6 N1     *px        0.0000   -0.3342    0.0855   -0.0000    0.0224   -0.3668   -0.0000   -0.0000   -0.0203    0.0431
     7 N1     *px       -0.0000    0.8816   -0.2256    0.0000   -0.0756    1.2370    0.0000    0.0000    0.0133   -0.0281
     8 N1     2py        0.0000    0.1269    0.4959    0.0000    0.4785    0.0293    0.0000    0.0000    0.1211    0.0572
     9 N1     *py        0.0000    0.0855    0.3342    0.0000    0.3668    0.0224    0.0000   -0.0000   -0.0431   -0.0203
    10 N1     *py       -0.0000   -0.2256   -0.8816   -0.0000   -1.2370   -0.0756   -0.0000   -0.0000    0.0281    0.0133
    11 N1     2pz       -0.4939   -0.0000   -0.0000    0.2687   -0.0000   -0.0000    0.2066   -0.1337    0.0000   -0.0000
    12 N1     *pz       -0.2683   -0.0000   -0.0000    0.3053    0.0000   -0.0000    0.3048   -0.1036    0.0000   -0.0000
    13 N1     *pz        1.6496    0.0000    0.0000   -0.7610   -0.0000    0.0000   -0.6230    1.3873   -0.0000    0.0000
    14 N1     *d2-       0.0000   -0.0000   -0.0000    0.0000   -0.0000   -0.0000   -0.0000    0.0000   -0.0000    0.0000
    15 N1     *d2-      -0.0000    0.0000    0.0000   -0.0000    0.0000   -0.0000    0.0000   -0.0000    0.0000    0.0000
    16 N1     *d1-       0.0000   -0.0010   -0.0038    0.0000    0.0077    0.0005   -0.0000   -0.0000    0.0041    0.0019
    17 N1     *d1-      -0.0000    0.0102    0.0400    0.0000    0.0125    0.0008    0.0000    0.0000   -0.5682   -0.2686
    18 N1     *d0       -0.0256    0.0000   -0.0000    0.0101   -0.0000   -0.0000    0.0021   -0.0159    0.0000   -0.0000
    19 N1     *d0        0.1835    0.0000   -0.0000    0.0104   -0.0000   -0.0000    0.2058   -0.0790    0.0000   -0.0000
    20 N1     *d1+      -0.0000    0.0038   -0.0010   -0.0000    0.0005   -0.0077   -0.0000    0.0000    0.0019   -0.0041
    21 N1     *d1+      -0.0000   -0.0400    0.0102   -0.0000    0.0008   -0.0125   -0.0000   -0.0000   -0.2686    0.5682
    22 N1     *d2+      -0.0000    0.0000   -0.0000    0.0000   -0.0000    0.0000   -0.0000    0.0000    0.0000    0.0000
    23 N1     *d2+       0.0000   -0.0000    0.0000   -0.0000   -0.0000   -0.0000    0.0000   -0.0000    0.0000   -0.0000
    24 N1     *f3-       0.0000   -0.0000   -0.0000    0.0000    0.0000    0.0000   -0.0000   -0.0000    0.0000    0.0000
    25 N1     *f2-      -0.0000   -0.0000    0.0000   -0.0000    0.0000   -0.0000    0.0000   -0.0000    0.0000    0.0000
    26 N1     *f1-      -0.0000    0.0016    0.0062    0.0000   -0.0059   -0.0004   -0.0000   -0.0000   -0.0090   -0.0043
    27 N1     *f0        0.0160    0.0000    0.0000   -0.0032    0.0000    0.0000    0.0070    0.0182   -0.0000    0.0000
    28 N1     *f1+      -0.0000   -0.0062    0.0016    0.0000   -0.0004    0.0059    0.0000   -0.0000   -0.0043    0.0090
    29 N1     *f2+       0.0000    0.0000   -0.0000   -0.0000   -0.0000   -0.0000   -0.0000   -0.0000   -0.0000   -0.0000
    30 N1     *f3+       0.0000   -0.0000    0.0000   -0.0000   -0.0000    0.0000   -0.0000    0.0000   -0.0000    0.0000
    31 N2     1s        -0.0438    0.0000    0.0000   -0.2223   -0.0000   -0.0000    0.2616    0.4126   -0.0000    0.0000
    32 N2     2s        -0.3252    0.0000    0.0000   -1.1256   -0.0000   -0.0000    1.2326    1.8639   -0.0000    0.0000
    33 N2     *s         0.0287   -0.0000   -0.0000    0.0583    0.0000    0.0000   -0.0798   -0.0557    0.0000   -0.0000
    34 N2     *s        -0.5001   -0.0000   -0.0000    1.3067    0.0000    0.0000   -1.0956   -3.1883    0.0000   -0.0000
    35 N2     2px        0.0000   -0.4959    0.1269    0.0000   -0.0293    0.4785    0.0000    0.0000    0.0572   -0.1210
    36 N2     *px        0.0000   -0.3342    0.0855    0.0000   -0.0224    0.3668    0.0000   -0.0000   -0.0203    0.0431
    37 N2     *px       -0.0000    0.8816   -0.2256   -0.0000    0.0756   -1.2370   -0.0000   -0.0000    0.0133   -0.0281
    38 N2     2py        0.0000    0.1269    0.4959    0.0000   -0.4785   -0.0293   -0.0000    0.0000    0.1210    0.0572
    39 N2     *py       -0.0000    0.0855    0.3342    0.0000   -0.3668   -0.0224   -0.0000   -0.0000   -0.0431   -0.0203
    40 N2     *py       -0.0000   -0.2256   -0.8816   -0.0000    1.2370    0.0756    0.0000    0.0000    0.0281    0.0133
    41 N2     2pz       -0.4940   -0.0000    0.0000   -0.2685   -0.0000    0.0000   -0.2065   -0.1337    0.0000   -0.0000
    42 N2     *pz       -0.2685   -0.0000    0.0000   -0.3052    0.0000    0.0000   -0.3048   -0.1036    0.0000   -0.0000
    43 N2     *pz        1.6501    0.0000   -0.0000    0.7603   -0.0000   -0.0000    0.6231    1.3872   -0.0000    0.0000
    44 N2     *d2-       0.0000   -0.0000   -0.0000    0.0000    0.0000    0.0000   -0.0000    0.0000   -0.0000   -0.0000
    45 N2     *d2-      -0.0000   -0.0000    0.0000   -0.0000   -0.0000   -0.0000    0.0000   -0.0000   -0.0000   -0.0000
    46 N2     *d1-      -0.0000    0.0010    0.0038    0.0000    0.0077    0.0005   -0.0000    0.0000   -0.0041   -0.0019
    47 N2     *d1-       0.0000   -0.0102   -0.0400   -0.0000    0.0125    0.0008    0.0000   -0.0000    0.5682    0.2686
    48 N2     *d0        0.0256   -0.0000   -0.0000    0.0101   -0.0000   -0.0000    0.0021    0.0159   -0.0000    0.0000
    49 N2     *d0       -0.1835   -0.0000    0.0000    0.0104   -0.0000   -0.0000    0.2057    0.0790   -0.0000    0.0000
    50 N2     *d1+       0.0000   -0.0038    0.0010   -0.0000    0.0005   -0.0077    0.0000   -0.0000   -0.0019    0.0041
    51 N2     *d1+       0.0000    0.0400   -0.0102   -0.0000    0.0008   -0.0125   -0.0000    0.0000    0.2686   -0.5682
    52 N2     *d2+      -0.0000    0.0000   -0.0000   -0.0000    0.0000   -0.0000    0.0000    0.0000    0.0000    0.0000
    53 N2     *d2+       0.0000    0.0000   -0.0000    0.0000   -0.0000    0.0000   -0.0000   -0.0000   -0.0000    0.0000
    54 N2     *f3-      -0.0000   -0.0000   -0.0000   -0.0000    0.0000    0.0000    0.0000   -0.0000    0.0000    0.0000
    55 N2     *f2-      -0.0000    0.0000    0.0000    0.0000    0.0000   -0.0000   -0.0000    0.0000   -0.0000   -0.0000
    56 N2     *f1-      -0.0000    0.0016    0.0062    0.0000    0.0059    0.0004    0.0000   -0.0000   -0.0090   -0.0043
    57 N2     *f0        0.0160   -0.0000   -0.0000    0.0032    0.0000    0.0000   -0.0070    0.0182   -0.0000    0.0000
    58 N2     *f1+       0.0000   -0.0062    0.0016   -0.0000    0.0004   -0.0059   -0.0000   -0.0000   -0.0043    0.0090
    59 N2     *f2+      -0.0000   -0.0000   -0.0000   -0.0000   -0.0000   -0.0000   -0.0000    0.0000   -0.0000    0.0000
    60 N2     *f3+       0.0000   -0.0000    0.0000    0.0000   -0.0000    0.0000    0.0000    0.0000   -0.0000    0.0000


      Orbital                21        22        23        24        25        26        27        28        29        30
      Energy             0.0000    0.0000    0.0000    0.0000    0.0000    0.0000    0.0000    0.0000    0.0000    0.0000
      Occ. No.           0.0000    0.0000    0.0000    0.0000    0.0000    0.0000    0.0000    0.0000    0.0000    0.0000

     1 N1     1s        -0.0000   -0.0000    0.0000    0.0000   -0.0936   -0.0000   -0.0000   -0.2794   -0.0662    0.0000
     2 N1     2s        -0.0000   -0.0000    0.0000    0.0000   -0.5702    0.0000    0.0000   -1.1320   -0.1779    0.0000
     3 N1     *s         0.0000    0.0000   -0.0000   -0.0000   -0.0109   -0.0000    0.0000   -0.0564    0.0530   -0.0000
     4 N1     *s         0.0000    0.0000   -0.0000   -0.0000    0.3895   -0.0000    0.0000    3.1991    0.0506   -0.0000
     5 N1     2px       -0.0000   -0.0000    0.0000    0.0000    0.0000    0.0023   -0.0350    0.0000   -0.0000   -2.3870
     6 N1     *px        0.0000   -0.0000   -0.0000   -0.0000   -0.0000   -0.0078    0.1178   -0.0000   -0.0000    2.2032
     7 N1     *px       -0.0000    0.0000   -0.0000    0.0000   -0.0000    0.0256   -0.3873    0.0000    0.0000    0.4224
     8 N1     2py       -0.0000   -0.0000   -0.0000    0.0000   -0.0000    0.0350    0.0023    0.0000   -0.0000   -0.0214
     9 N1     *py        0.0000    0.0000    0.0000   -0.0000    0.0000   -0.1178   -0.0078   -0.0000    0.0000    0.0197
    10 N1     *py       -0.0000   -0.0000    0.0000   -0.0000    0.0000    0.3873    0.0256    0.0000   -0.0000    0.0038
    11 N1     2pz       -0.0000   -0.0000    0.0000    0.0000   -0.3558   -0.0000    0.0000    0.5872    2.3409    0.0000
    12 N1     *pz       -0.0000   -0.0000   -0.0000    0.0000   -0.1602    0.0000    0.0000   -0.3507   -2.1958    0.0000
    13 N1     *pz        0.0000    0.0000   -0.0000   -0.0000    0.4587    0.0000    0.0000    1.7215   -0.3038   -0.0000
    14 N1     *d2-      -0.0000   -0.0168    0.0086   -0.0000   -0.0000   -0.0000   -0.0000    0.0000    0.0000   -0.0000
    15 N1     *d2-       0.0000    0.6924   -0.7361    0.0000   -0.0000    0.0000   -0.0000   -0.0000    0.0000    0.0000
    16 N1     *d1-       0.0000   -0.0000    0.0000   -0.0000    0.0000   -0.0014   -0.0001    0.0000    0.0000   -0.0002
    17 N1     *d1-       0.0000   -0.0000   -0.0000   -0.0000   -0.0000    0.8832    0.0583    0.0000   -0.0000   -0.0003
    18 N1     *d0       -0.0000    0.0000   -0.0000    0.0000    0.0267   -0.0000    0.0000   -0.0251   -0.0059   -0.0000
    19 N1     *d0       -0.0000   -0.0000   -0.0000   -0.0000    0.6156   -0.0000    0.0000    1.2334    0.1685    0.0000
    20 N1     *d1+      -0.0000   -0.0000   -0.0000   -0.0000   -0.0000   -0.0001    0.0014   -0.0000    0.0000   -0.0206
    21 N1     *d1+      -0.0000   -0.0000    0.0000   -0.0000   -0.0000    0.0583   -0.8832    0.0000    0.0000   -0.0323
    22 N1     *d2+      -0.0168    0.0000    0.0000    0.0087    0.0000    0.0000    0.0000    0.0000    0.0000    0.0000
    23 N1     *d2+       0.6924   -0.0000   -0.0000   -0.7361   -0.0000   -0.0000   -0.0000   -0.0000   -0.0000    0.0000
    24 N1     *f3-       0.0000   -0.0000    0.0000   -0.0000   -0.0000   -0.0000   -0.0000    0.0000   -0.0000    0.0000
    25 N1     *f2-       0.0000    0.0119    0.0096   -0.0000    0.0000   -0.0000   -0.0000    0.0000    0.0000   -0.0000
    26 N1     *f1-       0.0000    0.0000   -0.0000   -0.0000    0.0000   -0.0302   -0.0020    0.0000    0.0000    0.0008
    27 N1     *f0        0.0000   -0.0000    0.0000    0.0000   -0.0259   -0.0000    0.0000    0.0010   -0.1165    0.0000
    28 N1     *f1+      -0.0000   -0.0000   -0.0000    0.0000   -0.0000   -0.0020    0.0302   -0.0000   -0.0000    0.0851
    29 N1     *f2+       0.0119   -0.0000    0.0000    0.0096    0.0000   -0.0000   -0.0000   -0.0000    0.0000   -0.0000
    30 N1     *f3+      -0.0000   -0.0000    0.0000    0.0000   -0.0000    0.0000   -0.0000   -0.0000    0.0000   -0.0000
    31 N2     1s         0.0000   -0.0000    0.0000    0.0000   -0.0936    0.0000    0.0000    0.2795   -0.0662   -0.0000
    32 N2     2s         0.0000    0.0000    0.0000    0.0000   -0.5702   -0.0000    0.0000    1.1320   -0.1779   -0.0000
    33 N2     *s        -0.0000    0.0000   -0.0000   -0.0000   -0.0109   -0.0000    0.0000    0.0564    0.0530    0.0000
    34 N2     *s        -0.0000   -0.0000    0.0000   -0.0000    0.3895    0.0000   -0.0000   -3.1991    0.0505    0.0000
    35 N2     2px        0.0000   -0.0000   -0.0000    0.0000   -0.0000   -0.0023    0.0350    0.0000   -0.0000   -2.3877
    36 N2     *px       -0.0000    0.0000    0.0000   -0.0000   -0.0000    0.0078   -0.1179    0.0000    0.0000    2.2038
    37 N2     *px        0.0000    0.0000    0.0000   -0.0000    0.0000   -0.0256    0.3873   -0.0000    0.0000    0.4225
    38 N2     2py        0.0000    0.0000    0.0000    0.0000    0.0000   -0.0350   -0.0023    0.0000   -0.0000   -0.0214
    39 N2     *py       -0.0000   -0.0000   -0.0000   -0.0000    0.0000    0.1179    0.0078   -0.0000   -0.0000    0.0197
    40 N2     *py       -0.0000    0.0000    0.0000   -0.0000   -0.0000   -0.3873   -0.0256    0.0000    0.0000    0.0038
    41 N2     2pz       -0.0000    0.0000   -0.0000   -0.0000    0.3558   -0.0000   -0.0000    0.5873   -2.3409    0.0000
    42 N2     *pz       -0.0000   -0.0000    0.0000   -0.0000    0.1602    0.0000   -0.0000   -0.3508    2.1958   -0.0000
    43 N2     *pz        0.0000    0.0000    0.0000    0.0000   -0.4587   -0.0000    0.0000    1.7214    0.3039   -0.0000
    44 N2     *d2-      -0.0000   -0.0168   -0.0086    0.0000    0.0000    0.0000    0.0000   -0.0000   -0.0000   -0.0000
    45 N2     *d2-       0.0000    0.6924    0.7361   -0.0000    0.0000   -0.0000    0.0000    0.0000   -0.0000    0.0000
    46 N2     *d1-      -0.0000    0.0000   -0.0000    0.0000    0.0000   -0.0014   -0.0001   -0.0000   -0.0000    0.0002
    47 N2     *d1-       0.0000   -0.0000    0.0000   -0.0000   -0.0000    0.8832    0.0583    0.0000    0.0000    0.0003
    48 N2     *d0        0.0000   -0.0000   -0.0000    0.0000    0.0266    0.0000   -0.0000    0.0251   -0.0059    0.0000
    49 N2     *d0        0.0000    0.0000   -0.0000   -0.0000    0.6157    0.0000   -0.0000   -1.2333    0.1685    0.0000
    50 N2     *d1+       0.0000    0.0000    0.0000   -0.0000    0.0000   -0.0001    0.0014   -0.0000    0.0000    0.0206
    51 N2     *d1+       0.0000   -0.0000    0.0000    0.0000   -0.0000    0.0583   -0.8832   -0.0000   -0.0000    0.0323
    52 N2     *d2+      -0.0168    0.0000   -0.0000   -0.0086   -0.0000   -0.0000   -0.0000    0.0000   -0.0000    0.0000
    53 N2     *d2+       0.6924   -0.0000    0.0000    0.7361    0.0000    0.0000    0.0000   -0.0000    0.0000    0.0000
    54 N2     *f3-       0.0000   -0.0000   -0.0000    0.0000    0.0000    0.0000    0.0000    0.0000   -0.0000    0.0000
    55 N2     *f2-      -0.0000   -0.0119    0.0096   -0.0000    0.0000   -0.0000   -0.0000    0.0000   -0.0000    0.0000
    56 N2     *f1-      -0.0000    0.0000    0.0000    0.0000    0.0000    0.0302    0.0020   -0.0000    0.0000    0.0008
    57 N2     *f0        0.0000   -0.0000   -0.0000   -0.0000    0.0259   -0.0000   -0.0000    0.0010    0.1165    0.0000
    58 N2     *f1+      -0.0000   -0.0000   -0.0000   -0.0000   -0.0000    0.0020   -0.0302    0.0000   -0.0000    0.0850
    59 N2     *f2+      -0.0119    0.0000    0.0000    0.0096    0.0000   -0.0000    0.0000    0.0000    0.0000   -0.0000
    60 N2     *f3+      -0.0000   -0.0000   -0.0000   -0.0000   -0.0000   -0.0000    0.0000    0.0000    0.0000   -0.0000


      Orbital                31        32        33        34        35        36        37        38        39        40
      Energy             0.0000    0.0000    0.0000    0.0000    0.0000    0.0000    0.0000    0.0000    0.0000    0.0000
      Occ. No.           0.0000    0.0000    0.0000    0.0000    0.0000    0.0000    0.0000    0.0000    0.0000    0.0000

     1 N1     1s         0.0000   -0.0000    0.0000    0.1219   -0.0000   -0.0000   -0.1504    0.0000    0.0000   -0.0000
     2 N1     2s        -0.0000   -0.0000   -0.0000    0.3430   -0.0000   -0.0000   -0.2629    0.0000    0.0000   -0.0000
     3 N1     *s        -0.0000    0.0000    0.0000   -0.0803   -0.0000    0.0000    0.2387   -0.0000   -0.0000    0.0000
     4 N1     *s         0.0000   -0.0000   -0.0000   -0.5846   -0.0000   -0.0000    0.1639   -0.0000   -0.0000   -0.0000
     5 N1     2px        0.0214    2.4220   -0.0434   -0.0000    0.3608    0.0057   -0.0000   -0.0000    0.0000   -0.0000
     6 N1     *px       -0.0197   -2.2705    0.0407    0.0000   -0.3595   -0.0057    0.0000    0.0000    0.0000    0.0000
     7 N1     *px       -0.0038   -0.2826    0.0051    0.0000   -0.0559   -0.0009    0.0000    0.0000   -0.0000    0.0000
     8 N1     2py       -2.3870   -0.0434   -2.4220    0.0000    0.0057   -0.3608    0.0000    0.0000    0.0000    0.0000
     9 N1     *py        2.2032    0.0407    2.2705   -0.0000   -0.0057    0.3595   -0.0000   -0.0000   -0.0000   -0.0000
    10 N1     *py        0.4224    0.0051    0.2826   -0.0000   -0.0009    0.0559   -0.0000    0.0000    0.0000   -0.0000
    11 N1     2pz       -0.0000    0.0000    0.0000    2.1737    0.0000   -0.0000   -0.5446    0.0000    0.0000   -0.0000
    12 N1     *pz        0.0000   -0.0000   -0.0000   -2.0978   -0.0000    0.0000    0.5905   -0.0000   -0.0000    0.0000
    13 N1     *pz        0.0000   -0.0000   -0.0000   -0.6587   -0.0000   -0.0000    0.0045   -0.0000   -0.0000   -0.0000
    14 N1     *d2-      -0.0000    0.0000   -0.0000   -0.0000   -0.0000    0.0000    0.0000    0.0000    0.0595   -0.0000
    15 N1     *d2-       0.0000   -0.0000    0.0000    0.0000    0.0000    0.0000   -0.0000    0.0000    0.0066    0.0000
    16 N1     *d1-      -0.0206   -0.0000   -0.0027   -0.0000   -0.0004    0.0256   -0.0000    0.0000   -0.0000    0.0000
    17 N1     *d1-      -0.0323   -0.0001   -0.0072   -0.0000   -0.0009    0.0575   -0.0000   -0.0000   -0.0000   -0.0000
    18 N1     *d0        0.0000   -0.0000   -0.0000   -0.0721    0.0000   -0.0000   -0.1756   -0.0000    0.0000    0.0000
    19 N1     *d0        0.0000   -0.0000   -0.0000   -0.2886   -0.0000    0.0000    0.0920   -0.0000   -0.0000    0.0000
    20 N1     *d1+       0.0002    0.0027   -0.0000    0.0000   -0.0256   -0.0004   -0.0000   -0.0000   -0.0000   -0.0000
    21 N1     *d1+       0.0003    0.0072   -0.0001   -0.0000   -0.0575   -0.0009    0.0000    0.0000    0.0000    0.0000
    22 N1     *d2+       0.0000    0.0000    0.0000   -0.0000   -0.0000    0.0000   -0.0000    0.0595   -0.0000   -0.0000
    23 N1     *d2+      -0.0000    0.0000   -0.0000    0.0000    0.0000    0.0000    0.0000    0.0066   -0.0000    0.0000
    24 N1     *f3-       0.0000    0.0000    0.0000   -0.0000   -0.0000    0.0000    0.0000   -0.0000    0.0000    0.0063
    25 N1     *f2-      -0.0000   -0.0000   -0.0000    0.0000    0.0000    0.0000   -0.0000   -0.0000   -0.6974   -0.0000
    26 N1     *f1-       0.0851   -0.0010   -0.0586    0.0000    0.0108   -0.6778    0.0000    0.0000    0.0000    0.0000
    27 N1     *f0        0.0000   -0.0000   -0.0000    0.2588   -0.0000   -0.0000   -0.6471   -0.0000    0.0000   -0.0000
    28 N1     *f1+      -0.0008    0.0586   -0.0010    0.0000    0.6778    0.0108   -0.0000    0.0000   -0.0000   -0.0000
    29 N1     *f2+      -0.0000    0.0000    0.0000    0.0000   -0.0000   -0.0000   -0.0000   -0.6974    0.0000   -0.0000
    30 N1     *f3+       0.0000    0.0000   -0.0000    0.0000    0.0000    0.0000    0.0000    0.0000    0.0000    0.7066
    31 N2     1s         0.0000   -0.0000   -0.0000   -0.1219   -0.0000   -0.0000   -0.1504   -0.0000    0.0000   -0.0000
    32 N2     2s         0.0000   -0.0000   -0.0000   -0.3430   -0.0000   -0.0000   -0.2629   -0.0000    0.0000   -0.0000
    33 N2     *s        -0.0000    0.0000    0.0000    0.0803    0.0000    0.0000    0.2388    0.0000   -0.0000    0.0000
    34 N2     *s        -0.0000    0.0000    0.0000    0.5847    0.0000    0.0000    0.1640    0.0000   -0.0000    0.0000
    35 N2     2px        0.0214   -2.4213    0.0434    0.0000    0.3608    0.0057    0.0000    0.0000    0.0000   -0.0000
    36 N2     *px       -0.0197    2.2699   -0.0407   -0.0000   -0.3596   -0.0057   -0.0000   -0.0000   -0.0000    0.0000
    37 N2     *px       -0.0038    0.2825   -0.0051    0.0000   -0.0559   -0.0009   -0.0000    0.0000   -0.0000    0.0000
    38 N2     2py       -2.3877    0.0434    2.4213   -0.0000    0.0057   -0.3608    0.0000    0.0000    0.0000    0.0000
    39 N2     *py        2.2038   -0.0407   -2.2699    0.0000   -0.0057    0.3596   -0.0000    0.0000   -0.0000   -0.0000
    40 N2     *py        0.4225   -0.0051   -0.2825    0.0000   -0.0009    0.0559    0.0000   -0.0000   -0.0000   -0.0000
    41 N2     2pz       -0.0000    0.0000    0.0000    2.1737    0.0000    0.0000    0.5446    0.0000    0.0000    0.0000
    42 N2     *pz        0.0000   -0.0000   -0.0000   -2.0978   -0.0000   -0.0000   -0.5905   -0.0000   -0.0000    0.0000
    43 N2     *pz        0.0000   -0.0000   -0.0000   -0.6587   -0.0000   -0.0000   -0.0046   -0.0000   -0.0000   -0.0000
    44 N2     *d2-       0.0000   -0.0000   -0.0000   -0.0000   -0.0000   -0.0000    0.0000    0.0000    0.0595   -0.0000
    45 N2     *d2-      -0.0000    0.0000   -0.0000   -0.0000    0.0000    0.0000    0.0000    0.0000    0.0066    0.0000
    46 N2     *d1-       0.0206   -0.0000   -0.0027    0.0000    0.0004   -0.0256   -0.0000   -0.0000   -0.0000   -0.0000
    47 N2     *d1-       0.0323   -0.0001   -0.0072    0.0000    0.0009   -0.0575    0.0000    0.0000    0.0000    0.0000
    48 N2     *d0        0.0000   -0.0000    0.0000    0.0721   -0.0000   -0.0000   -0.1756    0.0000    0.0000   -0.0000
    49 N2     *d0       -0.0000    0.0000    0.0000    0.2886    0.0000    0.0000    0.0920    0.0000    0.0000    0.0000
    50 N2     *d1+      -0.0002    0.0027   -0.0000   -0.0000    0.0256    0.0004    0.0000   -0.0000    0.0000    0.0000
    51 N2     *d1+      -0.0003    0.0072   -0.0001   -0.0000    0.0575    0.0009   -0.0000    0.0000   -0.0000   -0.0000
    52 N2     *d2+       0.0000    0.0000   -0.0000   -0.0000    0.0000   -0.0000    0.0000    0.0595   -0.0000   -0.0000
    53 N2     *d2+      -0.0000    0.0000   -0.0000    0.0000   -0.0000    0.0000   -0.0000    0.0066   -0.0000    0.0000
    54 N2     *f3-       0.0000   -0.0000   -0.0000   -0.0000    0.0000   -0.0000    0.0000    0.0000   -0.0000    0.0063
    55 N2     *f2-      -0.0000    0.0000   -0.0000   -0.0000    0.0000    0.0000   -0.0000    0.0000    0.6974    0.0000
    56 N2     *f1-       0.0850    0.0010    0.0586    0.0000    0.0108   -0.6778    0.0000    0.0000    0.0000    0.0000
    57 N2     *f0       -0.0000    0.0000   -0.0000    0.2588    0.0000    0.0000    0.6471   -0.0000    0.0000    0.0000
    58 N2     *f1+      -0.0008   -0.0586    0.0010   -0.0000    0.6778    0.0108   -0.0000    0.0000   -0.0000   -0.0000
    59 N2     *f2+      -0.0000    0.0000    0.0000   -0.0000   -0.0000    0.0000   -0.0000    0.6974   -0.0000    0.0000
    60 N2     *f3+       0.0000   -0.0000    0.0000    0.0000   -0.0000   -0.0000   -0.0000   -0.0000   -0.0000    0.7063


      Orbital                41        42        43        44        45        46        47        48        49        50
      Energy             0.0000    0.0000    0.0000    0.0000    0.0000    0.0000    0.0000    0.0000    0.0000    0.0000
      Occ. No.           0.0000    0.0000    0.0000    0.0000    0.0000    0.0000    0.0000    0.0000    0.0000    0.0000

     1 N1     1s         0.0000   -0.0000   -0.0000   -0.0000   -0.0000   -0.0000   -0.0000   -0.2880    0.0000    0.0000
     2 N1     2s        -0.0000   -0.0000    0.0000   -0.0000   -0.0000   -0.0000   -0.0000   -0.6030    0.0000    0.0000
     3 N1     *s         0.0000    0.0000    0.0000    0.0000    0.0000    0.0000    0.0000    0.4223   -0.0000   -0.0000
     4 N1     *s         0.0000    0.0000   -0.0000    0.0000    0.0000    0.0000    0.0000    0.2441   -0.0000   -0.0000
     5 N1     2px        0.0000   -0.0000    0.0000   -0.0000   -0.0000   -0.0039   -0.2057    0.0000   -0.0000   -0.0000
     6 N1     *px       -0.0000    0.0000   -0.0000    0.0000    0.0000    0.0038    0.2018    0.0000    0.0000    0.0000
     7 N1     *px       -0.0000    0.0000   -0.0000    0.0000    0.0000    0.0005    0.0275   -0.0000    0.0000   -0.0000
     8 N1     2py        0.0000   -0.0000   -0.0000   -0.0000    0.0000    0.2057   -0.0039   -0.0000   -0.0000    0.0000
     9 N1     *py       -0.0000    0.0000    0.0000    0.0000    0.0000   -0.2018    0.0038    0.0000    0.0000   -0.0000
    10 N1     *py       -0.0000    0.0000    0.0000    0.0000   -0.0000   -0.0275    0.0005    0.0000   -0.0000   -0.0000
    11 N1     2pz        0.0000    0.0000   -0.0000   -0.0000   -0.0000    0.0000   -0.0000   -0.3778    0.0000    0.0000
    12 N1     *pz       -0.0000   -0.0000    0.0000    0.0000    0.0000    0.0000    0.0000    0.3634   -0.0000   -0.0000
    13 N1     *pz       -0.0000    0.0000   -0.0000    0.0000   -0.0000    0.0000    0.0000   -0.0494    0.0000    0.0000
    14 N1     *d2-      -0.0000   -0.0000    0.0000    0.1315    0.0000    0.0000   -0.0000    0.0000    0.8205   -0.0000
    15 N1     *d2-       0.0000    0.0000   -0.0000   -0.0345   -0.0000   -0.0000    0.0000   -0.0000   -0.3953    0.0000
    16 N1     *d1-       0.0000   -0.0000   -0.0000    0.0000   -0.0000   -0.4529    0.0086    0.0000    0.0000    0.0000
    17 N1     *d1-      -0.0000    0.0000    0.0000    0.0000    0.0000    0.1614   -0.0031    0.0000   -0.0000   -0.0000
    18 N1     *d0       -0.0000   -0.0000    0.0000   -0.0000   -0.0000   -0.0000   -0.0000    0.6349   -0.0000   -0.0000
    19 N1     *d0       -0.0000    0.0000   -0.0000    0.0000    0.0000    0.0000    0.0000   -0.2951    0.0000    0.0000
    20 N1     *d1+       0.0000   -0.0000    0.0000    0.0000    0.0000    0.0086    0.4529   -0.0000   -0.0000    0.0000
    21 N1     *d1+      -0.0000    0.0000   -0.0000   -0.0000   -0.0000   -0.0031   -0.1614    0.0000    0.0000   -0.0000
    22 N1     *d2+       0.0000   -0.0000   -0.0000   -0.0000    0.1315   -0.0000   -0.0000    0.0000    0.0000    0.8201
    23 N1     *d2+      -0.0000    0.0000    0.0000    0.0000   -0.0345    0.0000    0.0000   -0.0000   -0.0000   -0.3951
    24 N1     *f3-       0.7066   -0.7076   -0.0003    0.0000   -0.0000   -0.0000    0.0000   -0.0000   -0.0000   -0.0000
    25 N1     *f2-      -0.0000   -0.0000   -0.0000    0.7037    0.0000   -0.0000   -0.0000    0.0000    0.0634   -0.0000
    26 N1     *f1-       0.0000   -0.0000   -0.0000    0.0000   -0.0000   -0.5963    0.0113    0.0000    0.0000    0.0000
    27 N1     *f0        0.0000   -0.0000   -0.0000   -0.0000   -0.0000   -0.0000    0.0000    0.4259   -0.0000   -0.0000
    28 N1     *f1+       0.0000   -0.0000    0.0000    0.0000    0.0000    0.0113    0.5963   -0.0000   -0.0000    0.0000
    29 N1     *f2+       0.0000    0.0000   -0.0000   -0.0000    0.7037   -0.0000   -0.0000    0.0000    0.0000    0.0635
    30 N1     *f3+      -0.0063    0.0003   -0.7076    0.0000    0.0000   -0.0000   -0.0000   -0.0000    0.0000   -0.0000
    31 N2     1s         0.0000    0.0000   -0.0000   -0.0000   -0.0000    0.0000   -0.0000    0.2882   -0.0000   -0.0000
    32 N2     2s         0.0000    0.0000   -0.0000   -0.0000   -0.0000    0.0000   -0.0000    0.6033   -0.0000   -0.0000
    33 N2     *s        -0.0000   -0.0000    0.0000    0.0000    0.0000   -0.0000    0.0000   -0.4225    0.0000    0.0000
    34 N2     *s        -0.0000   -0.0000    0.0000    0.0000    0.0000   -0.0000    0.0000   -0.2444    0.0000    0.0000
    35 N2     2px        0.0000    0.0000   -0.0000    0.0000   -0.0000    0.0039    0.2057    0.0000   -0.0000    0.0000
    36 N2     *px       -0.0000   -0.0000    0.0000   -0.0000   -0.0000   -0.0038   -0.2018   -0.0000    0.0000   -0.0000
    37 N2     *px       -0.0000   -0.0000    0.0000   -0.0000   -0.0000   -0.0005   -0.0275   -0.0000    0.0000   -0.0000
    38 N2     2py        0.0000    0.0000    0.0000   -0.0000   -0.0000   -0.2057    0.0039    0.0000    0.0000    0.0000
    39 N2     *py       -0.0000   -0.0000   -0.0000    0.0000    0.0000    0.2018   -0.0038   -0.0000   -0.0000   -0.0000
    40 N2     *py       -0.0000   -0.0000   -0.0000    0.0000    0.0000    0.0275   -0.0005    0.0000   -0.0000   -0.0000
    41 N2     2pz        0.0000    0.0000    0.0000    0.0000    0.0000    0.0000    0.0000   -0.3779    0.0000    0.0000
    42 N2     *pz       -0.0000   -0.0000   -0.0000   -0.0000   -0.0000   -0.0000    0.0000    0.3634   -0.0000   -0.0000
    43 N2     *pz       -0.0000    0.0000   -0.0000    0.0000    0.0000    0.0000    0.0000   -0.0494    0.0000    0.0000
    44 N2     *d2-      -0.0000   -0.0000   -0.0000   -0.1315   -0.0000    0.0000    0.0000    0.0000    0.8205   -0.0000
    45 N2     *d2-       0.0000    0.0000    0.0000    0.0345    0.0000   -0.0000   -0.0000   -0.0000   -0.3953    0.0000
    46 N2     *d1-      -0.0000   -0.0000   -0.0000   -0.0000   -0.0000   -0.4529    0.0086   -0.0000   -0.0000   -0.0000
    47 N2     *d1-       0.0000    0.0000    0.0000    0.0000    0.0000    0.1614   -0.0031    0.0000    0.0000    0.0000
    48 N2     *d0        0.0000    0.0000    0.0000   -0.0000   -0.0000    0.0000    0.0000   -0.6350    0.0000    0.0000
    49 N2     *d0        0.0000   -0.0000    0.0000    0.0000    0.0000   -0.0000   -0.0000    0.2952   -0.0000   -0.0000
    50 N2     *d1+      -0.0000   -0.0000    0.0000    0.0000   -0.0000    0.0086    0.4529    0.0000    0.0000   -0.0000
    51 N2     *d1+       0.0000    0.0000   -0.0000   -0.0000    0.0000   -0.0031   -0.1614   -0.0000   -0.0000    0.0000
    52 N2     *d2+       0.0000    0.0000   -0.0000    0.0000   -0.1315    0.0000   -0.0000    0.0000    0.0000    0.8209
    53 N2     *d2+      -0.0000   -0.0000    0.0000   -0.0000    0.0345   -0.0000    0.0000   -0.0000   -0.0000   -0.3955
    54 N2     *f3-       0.7063    0.7079    0.0003    0.0000   -0.0000   -0.0000    0.0000    0.0000    0.0000   -0.0000
    55 N2     *f2-      -0.0000    0.0000    0.0000    0.7037    0.0000   -0.0000   -0.0000   -0.0000   -0.0634    0.0000
    56 N2     *f1-       0.0000   -0.0000   -0.0000    0.0000    0.0000    0.5963   -0.0113    0.0000   -0.0000   -0.0000
    57 N2     *f0       -0.0000   -0.0000    0.0000    0.0000    0.0000   -0.0000   -0.0000    0.4259   -0.0000   -0.0000
    58 N2     *f1+       0.0000   -0.0000    0.0000   -0.0000    0.0000   -0.0113   -0.5963   -0.0000    0.0000   -0.0000
    59 N2     *f2+      -0.0000   -0.0000    0.0000   -0.0000    0.7037   -0.0000    0.0000   -0.0000   -0.0000   -0.0633
    60 N2     *f3+      -0.0063   -0.0003    0.7079    0.0000    0.0000   -0.0000   -0.0000   -0.0000    0.0000    0.0000


      Orbital                51        52        53        54        55        56        57        58        59        60
      Energy             0.0000    0.0000    0.0000    0.0000    0.0000    0.0000    0.0000    0.0000    0.0000    0.0000
      Occ. No.           0.0000    0.0000    0.0000    0.0000    0.0000    0.0000    0.0000    0.0000    0.0000    0.0000

     1 N1     1s        -0.0000    0.0000    0.0000    0.0000   -0.6461   -0.0000    0.0000   -0.6092    1.5514   -1.7742
     2 N1     2s        -0.0000    0.0000    0.0000    0.0000   -1.3070   -0.0000    0.0000   -1.6247    3.4976   -4.0662
     3 N1     *s         0.0000   -0.0000   -0.0000   -0.0000    0.9565    0.0000   -0.0000    0.5188   -2.1418    2.4087
     4 N1     *s         0.0000   -0.0000   -0.0000   -0.0000    0.8123    0.0000   -0.0000    3.0366   -2.1285    3.2072
     5 N1     2px       -0.0747    0.0285    0.0000   -0.0000    0.0000    0.1275   -0.0231    0.0000    0.0000   -0.0000
     6 N1     *px        0.0790   -0.0302   -0.0000   -0.0000   -0.0000   -0.0995    0.0180   -0.0000   -0.0000    0.0000
     7 N1     *px        0.0367   -0.0140   -0.0000    0.0000    0.0000   -0.2309    0.0418   -0.0000   -0.0000    0.0000
     8 N1     2py        0.0285    0.0747    0.0000   -0.0000    0.0000    0.0231    0.1275    0.0000   -0.0000   -0.0000
     9 N1     *py       -0.0302   -0.0790   -0.0000    0.0000   -0.0000   -0.0180   -0.0995   -0.0000    0.0000    0.0000
    10 N1     *py       -0.0140   -0.0367    0.0000    0.0000   -0.0000   -0.0418   -0.2309    0.0000    0.0000   -0.0000
    11 N1     2pz       -0.0000    0.0000   -0.0000    0.0000   -0.1869    0.0000    0.0000   -1.1390   -0.1163    0.5485
    12 N1     *pz        0.0000   -0.0000   -0.0000   -0.0000    0.3013    0.0000   -0.0000    1.3254    0.2728   -0.6446
    13 N1     *pz        0.0000    0.0000    0.0000    0.0000   -0.0664    0.0000    0.0000    1.7057   -0.1323    0.4372
    14 N1     *d2-       0.0000    0.0000   -0.8240    0.0000   -0.0000   -0.0000    0.0000   -0.0000   -0.0000   -0.0000
    15 N1     *d2-      -0.0000   -0.0000    0.4514   -0.0000   -0.0000    0.0000   -0.0000    0.0000    0.0000    0.0000
    16 N1     *d1-      -0.2933   -0.7674   -0.0000   -0.0000    0.0000    0.1315    0.7263    0.0000   -0.0000   -0.0000
    17 N1     *d1-       0.1340    0.3506    0.0000    0.0000   -0.0000   -0.1154   -0.6369   -0.0000    0.0000    0.0000
    18 N1     *d0        0.0000   -0.0000   -0.0000   -0.0000    0.7533    0.0000   -0.0000   -0.6475    0.3949   -0.0004
    19 N1     *d0       -0.0000    0.0000    0.0000    0.0000   -0.3975   -0.0000    0.0000    1.2520   -0.3335   -0.0647
    20 N1     *d1+       0.7674   -0.2933    0.0000   -0.0000   -0.0000    0.7263   -0.1315   -0.0000    0.0000   -0.0000
    21 N1     *d1+      -0.3506    0.1340   -0.0000    0.0000    0.0000   -0.6369    0.1154    0.0000   -0.0000    0.0000
    22 N1     *d2+      -0.0000    0.0000   -0.0000   -0.8244   -0.0000    0.0000    0.0000    0.0000   -0.0000    0.0000
    23 N1     *d2+       0.0000   -0.0000    0.0000    0.4516    0.0000   -0.0000    0.0000   -0.0000    0.0000   -0.0000
    24 N1     *f3-       0.0000    0.0000   -0.0000    0.0000   -0.0000   -0.0000   -0.0000    0.0000    0.0000    0.0000
    25 N1     *f2-      -0.0000   -0.0000    0.1275   -0.0000    0.0000   -0.0000   -0.0000    0.0000    0.0000    0.0000
    26 N1     *f1-      -0.0187   -0.0490   -0.0000    0.0000   -0.0000   -0.0818   -0.4514    0.0000    0.0000    0.0000
    27 N1     *f0        0.0000   -0.0000   -0.0000    0.0000   -0.0771   -0.0000   -0.0000    0.6169   -0.1666   -0.2451
    28 N1     *f1+       0.0490   -0.0187   -0.0000   -0.0000    0.0000   -0.4514    0.0818    0.0000   -0.0000    0.0000
    29 N1     *f2+       0.0000   -0.0000    0.0000    0.1275    0.0000   -0.0000    0.0000   -0.0000    0.0000    0.0000
    30 N1     *f3+       0.0000   -0.0000   -0.0000    0.0000    0.0000    0.0000   -0.0000   -0.0000    0.0000    0.0000
    31 N2     1s         0.0000   -0.0000   -0.0000    0.0000   -0.6462   -0.0000    0.0000    0.6111    1.5517    1.7732
    32 N2     2s         0.0000   -0.0000   -0.0000    0.0000   -1.3074   -0.0000    0.0000    1.6288    3.4981    4.0638
    33 N2     *s        -0.0000    0.0000    0.0000   -0.0000    0.9567    0.0000   -0.0000   -0.5214   -2.1427   -2.4073
    34 N2     *s        -0.0000    0.0000    0.0000   -0.0000    0.8126    0.0000   -0.0000   -3.0391   -2.1267   -3.2058
    35 N2     2px       -0.0747    0.0285   -0.0000    0.0000    0.0000   -0.1275    0.0231   -0.0000   -0.0000   -0.0000
    36 N2     *px        0.0790   -0.0302    0.0000   -0.0000   -0.0000    0.0995   -0.0180    0.0000    0.0000    0.0000
    37 N2     *px        0.0367   -0.0140    0.0000   -0.0000   -0.0000    0.2309   -0.0418    0.0000    0.0000   -0.0000
    38 N2     2py        0.0285    0.0747    0.0000    0.0000   -0.0000   -0.0231   -0.1275    0.0000    0.0000    0.0000
    39 N2     *py       -0.0302   -0.0790   -0.0000   -0.0000    0.0000    0.0180    0.0995   -0.0000   -0.0000   -0.0000
    40 N2     *py       -0.0140   -0.0367   -0.0000   -0.0000    0.0000    0.0418    0.2309   -0.0000   -0.0000    0.0000
    41 N2     2pz       -0.0000   -0.0000   -0.0000   -0.0000    0.1868    0.0000   -0.0000   -1.1389    0.1180    0.5484
    42 N2     *pz        0.0000    0.0000    0.0000    0.0000   -0.3012   -0.0000    0.0000    1.3251   -0.2748   -0.6444
    43 N2     *pz        0.0000    0.0000   -0.0000   -0.0000    0.0663    0.0000    0.0000    1.7059    0.1304    0.4371
    44 N2     *d2-      -0.0000   -0.0000    0.8240   -0.0000    0.0000   -0.0000   -0.0000   -0.0000    0.0000    0.0000
    45 N2     *d2-       0.0000    0.0000   -0.4514    0.0000   -0.0000   -0.0000    0.0000    0.0000    0.0000   -0.0000
    46 N2     *d1-       0.2933    0.7674    0.0000    0.0000    0.0000    0.1315    0.7263    0.0000    0.0000    0.0000
    47 N2     *d1-      -0.1340   -0.3506   -0.0000   -0.0000   -0.0000   -0.1154   -0.6369   -0.0000   -0.0000   -0.0000
    48 N2     *d0       -0.0000    0.0000   -0.0000   -0.0000    0.7532    0.0000   -0.0000    0.6479    0.3941    0.0003
    49 N2     *d0        0.0000   -0.0000    0.0000    0.0000   -0.3974   -0.0000    0.0000   -1.2524   -0.3320    0.0649
    50 N2     *d1+      -0.7674    0.2933   -0.0000    0.0000   -0.0000    0.7263   -0.1315   -0.0000    0.0000    0.0000
    51 N2     *d1+       0.3506   -0.1340    0.0000   -0.0000    0.0000   -0.6369    0.1154   -0.0000   -0.0000   -0.0000
    52 N2     *d2+       0.0000   -0.0000    0.0000    0.8236    0.0000   -0.0000    0.0000    0.0000    0.0000    0.0000
    53 N2     *d2+      -0.0000    0.0000   -0.0000   -0.4512   -0.0000    0.0000   -0.0000   -0.0000   -0.0000   -0.0000
    54 N2     *f3-       0.0000    0.0000    0.0000   -0.0000    0.0000    0.0000    0.0000   -0.0000    0.0000   -0.0000
    55 N2     *f2-       0.0000    0.0000    0.1275   -0.0000    0.0000   -0.0000    0.0000   -0.0000    0.0000    0.0000
    56 N2     *f1-      -0.0187   -0.0490   -0.0000   -0.0000   -0.0000    0.0818    0.4514   -0.0000   -0.0000   -0.0000
    57 N2     *f0        0.0000    0.0000    0.0000   -0.0000    0.0771    0.0000    0.0000    0.6172    0.1657   -0.2452
    58 N2     *f1+       0.0490   -0.0187    0.0000   -0.0000   -0.0000    0.4514   -0.0818    0.0000    0.0000   -0.0000
    59 N2     *f2+       0.0000    0.0000    0.0000    0.1275    0.0000    0.0000    0.0000    0.0000    0.0000   -0.0000
    60 N2     *f3+       0.0000   -0.0000    0.0000    0.0000   -0.0000   -0.0000    0.0000    0.0000    0.0000    0.0000
--

      Von Neumann Entropy (Root   1) =  1.86410


      Mulliken population analysis for root number:  1
      -----------------------------------------------


++    Molecular charges:
      ------------------

      Mulliken charges per centre and basis function type
      ---------------------------------------------------

                N1      N2    
      1s       2.0015  2.0015
      2s       2.0247  2.0248
      2px      0.9145  0.9145
      2pz      1.0329  1.0329
      2py      0.9145  0.9145
      *s      -0.0720 -0.0721
      *px      0.0807  0.0807
      *pz     -0.0033 -0.0032
      *py      0.0807  0.0807
      *d2+     0.0000  0.0000
      *d1+     0.0066  0.0066
      *d0      0.0119  0.0119
      *d1-     0.0066  0.0066
      *d2-     0.0000  0.0000
      *f3+     0.0000  0.0000
      *f2+     0.0000  0.0000
      *f1+     0.0002  0.0002
      *f0      0.0003  0.0003
      *f1-     0.0002  0.0002
      *f2-     0.0000  0.0000
      *f3-     0.0000  0.0000
      Total    7.0000  7.0000

      N-E      0.0000 -0.0000

      Total electronic charge=   14.000000

      Total            charge=   -0.000000
--



      Expectation values of various properties for root number:  1
      -----------------------------------------------------------

      Properties not supported for DMRGSCF 

++    Molecular properties:
      ---------------------

      Charge (e):
                      =   -0.0000
      Dipole Moment (Debye):
      Origin of the operator (Ang)=    0.0000    0.0000    0.0000
                   X= -1.9251E-07               Y=  7.0241E-08               Z= -4.3908E-05           Total=  4.3908E-05
      Quadrupole Moment (Debye*Ang):
      Origin of the operator (Ang)=    0.0000    0.0000    0.9000
                  XX= -1.1852E+01              XY=  2.4861E-09              XZ=  7.1649E-07              YY= -1.1852E+01
                  YZ= -2.5000E-07              ZZ= -1.1903E+01
      In traceless form (Debye*Ang)
                  XX=  2.5548E-02              XY=  3.7291E-09              XZ=  1.0747E-06              YY=  2.5548E-02
                  YZ= -3.7500E-07              ZZ= -5.1096E-02
--


      Input file to MOLDEN was generated!

      Average orbitals are written to the RASORB file
      Natural orbitals for root   1 are written to the RASORB.1 file
      Spin density orbitals for root   1 are written to the SPDORB.1 file

--- Stop Module: dmrgscf at Tue Apr  9 00:42:29 2024 /rc=_RC_ALL_IS_WELL_ ---
*** files: n2.GssOrb n2.guessorb.h5 n2.rasscf.molden n2.guessorb.molden n2.scf.molden n2.RasOrb n2.RasOrb.1 n2.dmrgscf.h5 n2.ScfOrb n2.scf.h5 n2.SpdOrb.1 xmldump
    saved to directory /public/home/xzzeng/work/HQC/N2/cc-pvtz/NO/PES/entropy/1.8/results/work_dir/n2/dmrg
--- Module dmrgscf spent 5 seconds ---

.##################.
.# Happy landing! #.
.##################.

    Timing: Wall=5.34 User=3.02 System=0.19
