   This run of MOLCAS is using the pymolcas driver

                             OPE
                             OPE          NMOL  CASOP  ENMOLC A   SO
                 OPE        NMOLC        AS  OP EN  MO LC     AS  OP
                OPENM       OL CA        SO  PE NM  OL CA     SOP EN
                OP EN      MO   LC       AS  OP ENMOL  CASO   PENMOL
                OP  EN     MO   LC       AS  OP EN     MO     LC ASO
               OP   E  NMOL  C  AS       OP  EN MO     LC     AS  OP
               OP  E   NMO   LC AS        OPEN  MO     LCASOP EN   M
               O  PEN   MO  LCA  SO
            OPE   NMO   L   CAS    OP
        OPENMOL  CASOP     ENMOL   CASOPE
     OPENMOLCA   SOPENMOLCASOPEN   MOLCASOPE
    OPENMOLCAS   OP           EN   MOL    CAS
    OPENMOLCAS       OP  ENM        O     LCA
    OPENMOLCAS    OPEN  MOLCASO     P  E  NMO
    OPENMOLCAS     OP               E  N  MOL
    OPENMOLCA   SO           PENM   O  L  CAS    OPEN    MO    LCAS
    OPENMOLCA   SOP           ENM   O  L  CAS   OP  EN  MOLC  AS   O
    OPENMOLCA   SOPE           NM      O  LCA   S      OP  EN MO
    OPENMOLC                AS         O  PEN   M      OL  CA  SOPE
    OPENMO        LCASOPE  NMOL        C  ASO   P      ENMOLC     AS
    OPE     NMO      LCA  SO     P     E   NM   OL  CA SO  PE N   MO
          OPENMOLCA            SOPE   NMO        LCAS  O    P  ENMO
     OPENMOLCASOPENMOLCASOPENMOLCASOPENMOLCA
        OPENMOLCASOPENMOLCASOPENMOLCASOPE
            OPENMOLCASOPENMOLCASOPENM
               OPENMOLCASOPENMOLCA        version: o822a959167d23c ?
                   OPENMOLCASO
                       OPE                tag:

 OpenMolcas is free software; you can redistribute it and/or modify it
 under the terms of the GNU Lesser General Public License version 2.1.
 OpenMolcas is distributed in the hope that it will be useful, but it
 is provided "as is" and without any express or implied warranties.
 For more details see the full text of the license in the file
 LICENSE or in <http://www.gnu.org/licenses/>.

                 Copyright (C) The OpenMolcas Authors
           For the author list and the recommended citation,
                   consult the file CONTRIBUTORS.md

           *************************************************
           * pymolcas version py2.28                       *
           *   build c4a6d18ded8cb6cad61d2372a9abd97c      *
           *   (after the EMIL interpreter by V. Veryazov) *
           *************************************************

configuration info
------------------
Host name: mgt (Linux)
C Compiler ID: GNU
C flags: -std=gnu99
Fortran Compiler ID: GNU
Fortran flags: -fno-aggressive-loop-optimizations -cpp -fdefault-integer-8 -fmax-stack-var-size=1048576
Definitions: _MOLCAS_;_I8_;_LINUX_
Parallel: OFF (GA=OFF)


   ----------------------------------------------------------------------------------------------------------
  |
  |           Project: n2
  |    Submitted from: /public/home/xzzeng/work/HQC/N2/cc-pvtz/NO/PES/entropy/2.8/results/work_dir/n2/initial
  |      Scratch area: /public/home/xzzeng/work/HQC/N2/cc-pvtz/NO/PES/entropy/2.8/results/scratch
  |   Save outputs to: /public/home/xzzeng/work/HQC/N2/cc-pvtz/NO/PES/entropy/2.8/results/work_dir/n2/initial
  |            Molcas: /public/home/xzzeng/soft/OpenMolcas/build
  |
  | Scratch area is empty
  |
  |    MOLCAS_DRIVER = /public/home/xzzeng/soft/OpenMolcas/build/pymolcas
  |    MOLCAS_NPROCS = 1
  |    MOLCAS_SOURCE = /public/home/xzzeng/soft/OpenMolcas
  | MOLCAS_STRUCTURE = 0
  |
   ----------------------------------------------------------------------------------------------------------

++ ---------   Input file   ---------

&GATEWAY
  COORD = /public/home/xzzeng/work/HQC/N2/cc-pvtz/NO/PES/entropy/2.8/n2.xyz
  BASIS = cc-pvtz
  GROUP = C1

&SEWARD
  CHOLesky

&SCF
  SPIN   = 1
  CHARGE = 0
  CHOLesky

-- ----------------------------------

--- Start Module: gateway at Tue Apr  9 00:42:55 2024 ---

()()()()()()()()()()()()()()()()()()()()()()()()()()()()()()()()()()()()()()()()()()()()()()()()()()

                                              &GATEWAY

                                   only a single process is used
                       available to each process: 12 GB of memory, 1 thread?
                                             pid: 62339
()()()()()()()()()()()()()()()()()()()()()()()()()()()()()()()()()()()()()()()()()()()()()()()()()()


++    Symmetry information:
      ---------------------

                    Character Table for C1 

                             E  
                    a        1  x, y, xy, Rz, z, xz, Ry, yz, Rx, I
--


++    Basis set information:
      ----------------------


      Basis set label: N.CC-PVTZ.........

      Electronic valence basis set:
      ------------------
      Associated Effective Charge   7.000000 au
      Associated Actual Charge      7.000000 au
      Nuclear Model: Point charge

      Shell  nPrim  nBasis  Cartesian Spherical Contaminant
         s      10       4        X                  
         p       5       3        X                  
         d       2       2                 X         
         f       1       1                 X         
--


++    Molecular structure info:
      -------------------------

                    ************************************************ 
                    **** Cartesian Coordinates / Bohr, Angstrom **** 
                    ************************************************ 

     Center  Label                x              y              z                     x              y              z
        1      N1               0.000000       0.000000       0.000000              0.000000       0.000000       0.000000
        2      N2               0.000000       0.000000       5.291233              0.000000       0.000000       2.800000
--


            Nuclear Potential Energy              9.26060119 au

--- Stop Module: gateway at Tue Apr  9 00:42:56 2024 /rc=_RC_ALL_IS_WELL_ ---
*** files: xmldump
    saved to directory /public/home/xzzeng/work/HQC/N2/cc-pvtz/NO/PES/entropy/2.8/results/work_dir/n2/initial

--- Start Module: seward at Tue Apr  9 00:42:56 2024 ---

()()()()()()()()()()()()()()()()()()()()()()()()()()()()()()()()()()()()()()()()()()()()()()()()()()

                                              &SEWARD

                                   only a single process is used
                       available to each process: 12 GB of memory, 1 thread?
                                             pid: 62342
()()()()()()()()()()()()()()()()()()()()()()()()()()()()()()()()()()()()()()()()()()()()()()()()()()

               SEWARD will generate:
                  Multipole Moment integrals up to order  2
                  Kinetic Energy integrals
                  Nuclear Attraction integrals (point charge)
                  One-Electron Hamiltonian integrals
                  Velocity integrals
                  Orbital angular momentum around ( 0.0000  0.0000  2.6456 )
                  Velocity quadrupole around ( 0.0000  0.0000  2.6456 )
                  Cholesky decomposed two-electron repulsion integrals
                   - CD Threshold:   0.10E-03

                   Integrals are discarded if absolute value <: 1.00E-40
                   Integral cutoff threshold is set to       <: 1.00E-40

            Nuclear Potential Energy              9.26060119 au


      Basis set specifications :
      Symmetry species         a  
      Basis functions           60


      Input file to MOLDEN was generated!

--- Stop Module: seward at Tue Apr  9 00:42:57 2024 /rc=_RC_ALL_IS_WELL_ ---
*** files: n2.GssOrb n2.guessorb.h5 n2.guessorb.molden xmldump
    saved to directory /public/home/xzzeng/work/HQC/N2/cc-pvtz/NO/PES/entropy/2.8/results/work_dir/n2/initial

*** symbolic link created: INPORB -> n2.GssOrb
--- Start Module: scf at Tue Apr  9 00:42:57 2024 ---

()()()()()()()()()()()()()()()()()()()()()()()()()()()()()()()()()()()()()()()()()()()()()()()()()()

                                                &SCF

                                   only a single process is used
                       available to each process: 12 GB of memory, 1 thread?
                                             pid: 62367
()()()()()()()()()()()()()()()()()()()()()()()()()()()()()()()()()()()()()()()()()()()()()()()()()()

++    Input section:
      --------------

      Header of the integral files:
      
       Integrals generated by Gateway/Seward, Tue Apr  9 00:42:56 2024


      Cartesian coordinates in Angstrom:
      -----------------------------------------------------
      No.  Label        X            Y            Z        
      -----------------------------------------------------
       1   N1         0.00000000   0.00000000   0.00000000
       2   N2         0.00000000   0.00000000   2.80000000
      -----------------------------------------------------
      Nuclear repulsion energy =    9.26060119
--

++    Orbital specifications:
      -----------------------

      Symmetry species               1
                                     a
      Frozen orbitals                0
      Occupied orbitals              7
      Secondary orbitals            53
      Deleted orbitals               0
      Total number of orbitals      60
      Number of basis functions     60
--

      Molecular charge                           0.000

++    Optimization specifications:
      ----------------------------

      SCF Algorithm: LK-Cholesky
      LK screening threshold:                     4.50E-02
      Local-Exchange (LK) algorithm.
       - the density matrix is decomposed
      The actual AO density is used
      Number of density matrices in core                 5
      Maximum number of NDDO SCF iterations            400
      Maximum number of HF SCF iterations              400
      Threshold for SCF energy change             1.00E-09
      Threshold for density matrix                1.00E-04
      Threshold for Fock matrix                   1.50E-04
      Threshold for linear dependence             1.00E-09
      Threshold at which DIIS is turned on        1.50E-01
      Maximum depth in the DIIS procedure                5
      Maximum depth in the BFGS Hessian update          30
      Threshold at which QNR/C2DIIS is turned on  7.50E-02
      Threshold for Norm(delta) (QNR/C2DIIS)      1.00E-03
      All orbitals punched on: SCFORB
--

      Input vectors read from INPORB
      Orbital file label: *Guess orbitals


++ Convergence information
                                   SCF        iterations: Energy and convergence statistics

Iter     Tot. SCF        One-elec.       Two-elec.     Energy      Max Dij or  Max Fij      DNorm      TNorm      AccCon     Time
         Energy          Energy          Energy        Change      Delta Norm                                                in Sec.
   1  -107.962047016  -166.774561254    49.551913047   0.00E+00    2.73E-01*   1.10E-01*    6.06E+00   5.29E+01   None         0.
   2  -108.057639307  -164.384130355    47.065889858  -9.56E-02*   5.20E-02*   3.95E-02*    5.20E+00   5.18E+01   EDIIS        0.
   3  -108.066413532  -165.198672000    47.871657277  -8.77E-03*   1.28E-02*   9.87E-03*    5.55E+00   5.21E+01   c2DIIS       0.
   4  -108.067413435  -164.977521364    47.649506738  -1.00E-03*   5.26E-03*   2.36E-03*    5.48E+00   5.20E+01   QNRc2DIIS    0.
   5  -108.067386303  -165.000155824    47.672168330   2.71E-05*   7.98E-03*   4.64E-03*    5.49E+00   5.20E+01   QNRc2DIIS    0.
   6  -108.067367945  -165.035012869    47.707043734   1.84E-05*   4.98E-03*   3.17E-03*    5.52E+00   5.21E+01   QNRc2DIIS    0.
   7  -108.067451662  -164.992994383    47.664941531  -8.37E-05*   3.19E-04    9.26E-05     5.49E+00   5.20E+01   QNRc2DIIS    0.
   8  -108.067451836  -164.994489257    47.666436231  -1.74E-07*   2.24E-04    1.17E-04     5.49E+00   5.20E+01   QNRc2DIIS    0.
   9  -108.067451702  -164.996002486    47.667949592   1.33E-07*   4.63E-04    1.25E-04     5.49E+00   5.20E+01   QNRc2DIIS    0.
  10  -108.067451680  -164.994716380    47.666663508   2.22E-08*   6.50E-05    1.34E-05     5.49E+00   5.20E+01   QNRc2DIIS    0.
  11  -108.067451680  -164.994498107    47.666445237   4.57E-10*   3.07E-06    1.40E-06     5.49E+00   5.20E+01   QNRc2DIIS    0.
  12  -108.067451680  -164.994514887    47.666462016  -3.16E-11    4.30E-07    1.45E-07     5.49E+00   5.20E+01   QNRc2DIIS    0.

       Convergence after  12 Macro Iterations
--

 *****************************************************************************************************************************
 *                                                                                                                           *
 *                                             SCF/KS-DFT Program, Final results                                             *
 *                                                                                                                           *
 *                                                                                                                           *
 *                                                                                                                           *
 *                                                       Final Results                                                       *
 *                                                                                                                           *
 *****************************************************************************************************************************

::    Total SCF energy                               -108.0674516798
      One-electron energy                            -164.9945148869
      Two-electron energy                              47.6664620163
      Nuclear repulsion energy                          9.2606011908
      Kinetic energy (interpolated)                   107.5134649521
      Virial theorem                                    1.0051527195
      Total spin, S(S+1)                                0.0000000000
      Total spin, S                                     0.0000000000
      Max non-diagonal density matrix element           0.0000004092
      Max non-diagonal Fock matrix element              0.0000002017


      All orbitals with orbital energies smaller than  E(LUMO)+0.5 are printed

++    Molecular orbitals:
      -------------------

      Title: SCF orbitals

      Molecular orbitals for symmetry species 1: a  

          Orbital            1         2         3         4         5         6         7         8         9        10    
          Energy          -15.8293  -15.8292   -1.0501   -1.0190   -0.3900   -0.3566   -0.3566   -0.1582   -0.1582   -0.1118
          Occ. No.          2.0000    2.0000    2.0000    2.0000    2.0000    2.0000    2.0000    0.0000    0.0000    0.0000

        1 N1     1s         0.6688    0.7445    0.0000   -0.0030    0.0086    0.0000   -0.0000   -0.0000    0.0000    0.0056
        2 N1     2s         0.0004   -0.0002    0.7199   -0.7439    0.0812   -0.0000   -0.0000    0.0000    0.0000    0.0994
        3 N1     *s        -0.0011   -0.0010    0.0091   -0.0089   -0.0003   -0.0000    0.0000    0.0000    0.0000   -0.0005
        4 N1     *s        -0.0002    0.0004   -0.0299    0.0434   -0.0391   -0.0000    0.0000    0.0000   -0.0000   -0.0194
        5 N1     2px        0.0000    0.0000   -0.0000    0.0000    0.0000    0.6457    0.0089   -0.6632    0.0050    0.0000
        6 N1     *px       -0.0000    0.0000    0.0000   -0.0000   -0.0000   -0.0197   -0.0003    0.0184   -0.0001   -0.0000
        7 N1     *px        0.0000   -0.0000    0.0000   -0.0000    0.0000    0.0913    0.0013   -0.0899    0.0007    0.0000
        8 N1     2py        0.0000   -0.0000    0.0000    0.0000    0.0000   -0.0089    0.6457    0.0050    0.6632   -0.0000
        9 N1     *py       -0.0000    0.0000    0.0000   -0.0000    0.0000    0.0003   -0.0197   -0.0001   -0.0184    0.0000
       10 N1     *py        0.0000   -0.0000   -0.0000    0.0000   -0.0000   -0.0013    0.0913    0.0007    0.0899   -0.0000
       11 N1     2pz        0.0011    0.0012    0.0027    0.0391   -0.6180    0.0000    0.0000   -0.0000   -0.0000    0.6882
       12 N1     *pz       -0.0008   -0.0010   -0.0005    0.0004    0.0141   -0.0000   -0.0000    0.0000    0.0000   -0.0230
       13 N1     *pz       -0.0003    0.0000    0.0058    0.0001   -0.0825   -0.0000    0.0000   -0.0000   -0.0000    0.1097
       14 N1     *d2-       0.0000    0.0000    0.0000   -0.0000    0.0000   -0.0000   -0.0000    0.0000    0.0000    0.0000
       15 N1     *d2-      -0.0000   -0.0000   -0.0000    0.0000   -0.0000   -0.0000   -0.0000    0.0000    0.0000   -0.0000
       16 N1     *d1-      -0.0000   -0.0000    0.0000    0.0000    0.0000   -0.0000    0.0006    0.0000    0.0006   -0.0000
       17 N1     *d1-       0.0000    0.0000   -0.0000    0.0000    0.0000   -0.0001    0.0081   -0.0001   -0.0083   -0.0000
       18 N1     *d0       -0.0000   -0.0001   -0.0001    0.0003   -0.0014   -0.0000    0.0000    0.0000    0.0000   -0.0003
       19 N1     *d0       -0.0000    0.0001    0.0016    0.0015   -0.0108    0.0000   -0.0000    0.0000    0.0000   -0.0090
       20 N1     *d1+      -0.0000   -0.0000   -0.0000    0.0000    0.0000    0.0006    0.0000   -0.0006    0.0000   -0.0000
       21 N1     *d1+       0.0000    0.0000    0.0000    0.0000   -0.0000    0.0081    0.0001    0.0083   -0.0001    0.0000
       22 N1     *d2+      -0.0000   -0.0000   -0.0000    0.0000    0.0000    0.0000    0.0000   -0.0000    0.0000    0.0000
       23 N1     *d2+      -0.0000   -0.0000   -0.0000    0.0000    0.0000   -0.0000    0.0000    0.0000    0.0000   -0.0000
       24 N1     *f3-      -0.0000   -0.0000   -0.0000    0.0000   -0.0000    0.0000   -0.0000    0.0000    0.0000    0.0000
       25 N1     *f2-      -0.0000    0.0000    0.0000   -0.0000    0.0000    0.0000    0.0000    0.0000   -0.0000    0.0000
       26 N1     *f1-      -0.0000    0.0000   -0.0000   -0.0000   -0.0000   -0.0000    0.0005   -0.0000   -0.0005   -0.0000
       27 N1     *f0       -0.0000    0.0000    0.0002    0.0001   -0.0006   -0.0000   -0.0000   -0.0000    0.0000   -0.0005
       28 N1     *f1+       0.0000    0.0000    0.0000    0.0000   -0.0000    0.0005    0.0000    0.0005   -0.0000   -0.0000
       29 N1     *f2+      -0.0000   -0.0000    0.0000    0.0000   -0.0000    0.0000   -0.0000   -0.0000    0.0000    0.0000
       30 N1     *f3+       0.0000   -0.0000   -0.0000   -0.0000    0.0000    0.0000    0.0000    0.0000   -0.0000   -0.0000
       31 N2     1s         0.7446   -0.6686    0.0000    0.0030    0.0086   -0.0000    0.0000   -0.0000    0.0000   -0.0056
       32 N2     2s         0.0003    0.0002    0.7200    0.7439    0.0812   -0.0000   -0.0000   -0.0000    0.0000   -0.0994
       33 N2     *s        -0.0012    0.0009    0.0091    0.0089   -0.0003   -0.0000   -0.0000   -0.0000    0.0000    0.0005
       34 N2     *s        -0.0002   -0.0004   -0.0299   -0.0434   -0.0391    0.0000   -0.0000    0.0000   -0.0000    0.0194
       35 N2     2px       -0.0000    0.0000   -0.0000   -0.0000    0.0000    0.6457    0.0089    0.6632   -0.0050   -0.0000
       36 N2     *px        0.0000   -0.0000    0.0000    0.0000   -0.0000   -0.0197   -0.0003   -0.0185    0.0001    0.0000
       37 N2     *px        0.0000    0.0000    0.0000    0.0000    0.0000    0.0913    0.0013    0.0899   -0.0007   -0.0000
       38 N2     2py       -0.0000    0.0000   -0.0000    0.0000    0.0000   -0.0089    0.6457   -0.0050   -0.6632   -0.0000
       39 N2     *py        0.0000   -0.0000   -0.0000   -0.0000    0.0000    0.0003   -0.0197    0.0001    0.0185    0.0000
       40 N2     *py       -0.0000   -0.0000    0.0000    0.0000    0.0000   -0.0013    0.0913   -0.0007   -0.0899   -0.0000
       41 N2     2pz       -0.0012    0.0011   -0.0027    0.0391    0.6180   -0.0000   -0.0000    0.0000    0.0000    0.6881
       42 N2     *pz        0.0009   -0.0010    0.0005    0.0004   -0.0141    0.0000    0.0000   -0.0000   -0.0000   -0.0230
       43 N2     *pz        0.0003    0.0000   -0.0058    0.0001    0.0825   -0.0000    0.0000    0.0000    0.0000    0.1097
       44 N2     *d2-      -0.0000    0.0000    0.0000    0.0000    0.0000    0.0000   -0.0000   -0.0000   -0.0000    0.0000
       45 N2     *d2-       0.0000    0.0000   -0.0000   -0.0000   -0.0000   -0.0000   -0.0000   -0.0000   -0.0000   -0.0000
       46 N2     *d1-       0.0000    0.0000   -0.0000   -0.0000   -0.0000    0.0000   -0.0006    0.0000    0.0006   -0.0000
       47 N2     *d1-       0.0000    0.0000    0.0000   -0.0000    0.0000    0.0001   -0.0081   -0.0001   -0.0083    0.0000
       48 N2     *d0       -0.0000    0.0001   -0.0001   -0.0003   -0.0014   -0.0000    0.0000   -0.0000   -0.0000    0.0003
       49 N2     *d0       -0.0000   -0.0001    0.0016   -0.0015   -0.0108   -0.0000    0.0000   -0.0000   -0.0000    0.0090
       50 N2     *d1+       0.0000   -0.0000    0.0000    0.0000   -0.0000   -0.0006   -0.0000   -0.0006    0.0000   -0.0000
       51 N2     *d1+      -0.0000    0.0000   -0.0000   -0.0000   -0.0000   -0.0081   -0.0001    0.0083   -0.0001   -0.0000
       52 N2     *d2+       0.0000   -0.0000    0.0000    0.0000   -0.0000    0.0000    0.0000    0.0000   -0.0000    0.0000
       53 N2     *d2+       0.0000   -0.0000    0.0000    0.0000    0.0000   -0.0000    0.0000   -0.0000   -0.0000   -0.0000
       54 N2     *f3-       0.0000   -0.0000    0.0000   -0.0000    0.0000    0.0000   -0.0000   -0.0000   -0.0000    0.0000
       55 N2     *f2-       0.0000   -0.0000   -0.0000   -0.0000    0.0000    0.0000    0.0000   -0.0000    0.0000   -0.0000
       56 N2     *f1-      -0.0000   -0.0000   -0.0000    0.0000    0.0000   -0.0000    0.0005    0.0000    0.0005   -0.0000
       57 N2     *f0        0.0000    0.0000   -0.0002    0.0001    0.0006   -0.0000   -0.0000    0.0000   -0.0000   -0.0005
       58 N2     *f1+       0.0000   -0.0000    0.0000    0.0000   -0.0000    0.0005    0.0000   -0.0005    0.0000   -0.0000
       59 N2     *f2+      -0.0000    0.0000   -0.0000   -0.0000   -0.0000   -0.0000   -0.0000   -0.0000   -0.0000   -0.0000
       60 N2     *f3+      -0.0000    0.0000    0.0000   -0.0000    0.0000    0.0000    0.0000   -0.0000    0.0000    0.0000
--


++    Molecular charges:
      ------------------

      Mulliken charges per centre and basis function type
      ---------------------------------------------------

                N1      N2    
      1s       2.0016  2.0016
      2s       2.0686  2.0686
      2px      0.9168  0.9167
      2pz      0.9087  0.9087
      2py      0.9168  0.9167
      *s      -0.0735 -0.0735
      *px      0.0829  0.0829
      *pz      0.0932  0.0933
      *py      0.0829  0.0829
      *d2+     0.0000  0.0000
      *d1+     0.0004  0.0004
      *d0      0.0013  0.0013
      *d1-     0.0004  0.0004
      *d2-     0.0000  0.0000
      *f3+     0.0000  0.0000
      *f2+     0.0000  0.0000
      *f1+     0.0000  0.0000
      *f0      0.0000  0.0000
      *f1-     0.0000  0.0000
      *f2-     0.0000  0.0000
      *f3-     0.0000  0.0000
      Total    7.0000  7.0000

      N-E     -0.0000  0.0000

      Total electronic charge=   14.000000

      Total            charge=   -0.000000
--


++    Molecular properties:
      ---------------------

      Charge (e):
                      =   -0.0000
      Dipole Moment (Debye):
      Origin of the operator (Ang)=    0.0000    0.0000    0.0000
                   X=  2.9950E-17               Y= -2.4284E-14               Z=  5.0570E-05           Total=  5.0570E-05
      Quadrupole Moment (Debye*Ang):
      Origin of the operator (Ang)=    0.0000    0.0000    1.4000
                  XX= -1.2269E+01              XY=  8.4839E-14              XZ=  2.8583E-15              YY= -1.2269E+01
                  YZ= -3.3914E-13              ZZ= -1.0122E+01
      In traceless form (Debye*Ang)
                  XX= -1.0734E+00              XY=  1.2726E-13              XZ=  4.2875E-15              YY= -1.0734E+00
                  YZ= -5.0870E-13              ZZ=  2.1467E+00
--


      Input file to MOLDEN was generated!

 ###############################################################################
 ###############################################################################
 ###                                                                         ###
 ###                                                                         ###
 ###    WARNING: RunFile label nBas                                          ###
 ###    was used       74 times                                              ###
 ###                                                                         ###
 ###                                                                         ###
 ###############################################################################
 ###############################################################################
--- Stop Module: scf at Tue Apr  9 00:42:58 2024 /rc=_RC_ALL_IS_WELL_ ---
*** files: n2.GssOrb n2.guessorb.h5 n2.guessorb.molden n2.scf.molden n2.ScfOrb n2.scf.h5 xmldump
    saved to directory /public/home/xzzeng/work/HQC/N2/cc-pvtz/NO/PES/entropy/2.8/results/work_dir/n2/initial
--- Module scf spent 1 second ---

.##################.
.# Happy landing! #.
.##################.

    Timing: Wall=2.47 User=1.60 System=0.29
