[Molden Format]
[N_Atoms]
                    2
[Atoms] (AU)
N1          1      7           0.00000000      0.00000000      0.00000000
N2          2      7           0.00000000      0.00000000      4.53534270
[5D]
[7F]
[Charge] (Mulliken)
   0.0000000000000000     
   0.0000000000000000     
[GTO] (AU)
   1
   s  10
  1.142000000E+04  5.229996559E-04
  1.712000000E+03  4.044997339E-03
  3.893000000E+02  2.077498633E-02
  1.100000000E+02  8.072694689E-02
  3.557000000E+01  2.330738467E-01
  1.254000000E+01  4.335007148E-01
  4.644000000E+00  3.474717714E-01
  1.293000000E+00  4.126197285E-02
  5.118000000E-01 -8.507994403E-03
  1.787000000E-01  2.383998432E-03
   s  10
  1.142000000E+04 -1.149999544E-04
  1.712000000E+03 -8.949996452E-04
  3.893000000E+02 -4.623998167E-03
  1.100000000E+02 -1.852799265E-02
  3.557000000E+01 -5.733897727E-02
  1.254000000E+01 -1.320759476E-01
  4.644000000E+00 -1.725099316E-01
  1.293000000E+00  1.518139398E-01
  5.118000000E-01  5.999437621E-01
  1.787000000E-01  3.874618464E-01
   s   1
  1.293000000E+00  1.000000000E+00
   s   1
  1.787000000E-01  1.000000000E+00
   p   5
  2.663000000E+01  1.467000345E-02
  5.948000000E+00  9.176402155E-02
  1.742000000E+00  2.986830701E-01
  5.550000000E-01  4.984871171E-01
  1.725000000E-01  3.370230791E-01
   p   1
  5.550000000E-01  1.000000000E+00
   p   1
  1.725000000E-01  1.000000000E+00
   d   1
  1.654000000E+00  1.000000000E+00
   d   1
  4.690000000E-01  1.000000000E+00
   f   1
  1.093000000E+00  1.000000000E+00
 
   2
   s  10
  1.142000000E+04  5.229996559E-04
  1.712000000E+03  4.044997339E-03
  3.893000000E+02  2.077498633E-02
  1.100000000E+02  8.072694689E-02
  3.557000000E+01  2.330738467E-01
  1.254000000E+01  4.335007148E-01
  4.644000000E+00  3.474717714E-01
  1.293000000E+00  4.126197285E-02
  5.118000000E-01 -8.507994403E-03
  1.787000000E-01  2.383998432E-03
   s  10
  1.142000000E+04 -1.149999544E-04
  1.712000000E+03 -8.949996452E-04
  3.893000000E+02 -4.623998167E-03
  1.100000000E+02 -1.852799265E-02
  3.557000000E+01 -5.733897727E-02
  1.254000000E+01 -1.320759476E-01
  4.644000000E+00 -1.725099316E-01
  1.293000000E+00  1.518139398E-01
  5.118000000E-01  5.999437621E-01
  1.787000000E-01  3.874618464E-01
   s   1
  1.293000000E+00  1.000000000E+00
   s   1
  1.787000000E-01  1.000000000E+00
   p   5
  2.663000000E+01  1.467000345E-02
  5.948000000E+00  9.176402155E-02
  1.742000000E+00  2.986830701E-01
  5.550000000E-01  4.984871171E-01
  1.725000000E-01  3.370230791E-01
   p   1
  5.550000000E-01  1.000000000E+00
   p   1
  1.725000000E-01  1.000000000E+00
   d   1
  1.654000000E+00  1.000000000E+00
   d   1
  4.690000000E-01  1.000000000E+00
   f   1
  1.093000000E+00  1.000000000E+00
 
[MO]
Sym=     1a  
Ene=   -15.6350
Spin= Alpha
Occup=    2.00000
   1         0.70765845
   2         0.00353794
   3        -0.00165163
   4         0.00194550
   5        -0.00000000
   6        -0.00000000
   7         0.00018871
   8         0.00000000
   9         0.00000000
  10        -0.00000330
  11         0.00000000
  12         0.00000000
  13        -0.00000878
  14        -0.00000000
  15         0.00000000
  16         0.00000000
  17        -0.00000000
  18         0.00000000
  19         0.00000000
  20        -0.00000000
  21        -0.00000000
  22         0.00000000
  23        -0.00000000
  24        -0.00000000
  25        -0.00000000
  26         0.00000000
  27        -0.00000000
  28        -0.00000000
  29         0.00000000
  30         0.00000000
  31         0.70765845
  32         0.00353794
  33        -0.00165163
  34         0.00194550
  35         0.00000000
  36         0.00000000
  37        -0.00018871
  38        -0.00000000
  39        -0.00000000
  40         0.00000330
  41         0.00000000
  42        -0.00000000
  43         0.00000878
  44        -0.00000000
  45         0.00000000
  46         0.00000000
  47         0.00000000
  48        -0.00000000
  49         0.00000000
  50        -0.00000000
  51        -0.00000000
  52         0.00000000
  53         0.00000000
  54        -0.00000000
  55         0.00000000
  56         0.00000000
  57         0.00000000
  58         0.00000000
  59         0.00000000
  60         0.00000000
Sym=     2a  
Ene=   -15.6330
Spin= Alpha
Occup=    2.00000
   1        -0.70771179
   2        -0.00331844
   3         0.00165396
   4        -0.00194437
   5         0.00000000
   6        -0.00000000
   7         0.00018621
   8        -0.00000000
   9         0.00000000
  10        -0.00000325
  11         0.00000000
  12         0.00000000
  13        -0.00000867
  14         0.00000000
  15         0.00000000
  16        -0.00000000
  17        -0.00000000
  18         0.00000000
  19        -0.00000000
  20        -0.00000000
  21        -0.00000000
  22         0.00000000
  23         0.00000000
  24        -0.00000000
  25        -0.00000000
  26         0.00000000
  27         0.00000000
  28         0.00000000
  29         0.00000000
  30        -0.00000000
  31         0.70771179
  32         0.00331844
  33        -0.00165396
  34         0.00194437
  35        -0.00000000
  36         0.00000000
  37         0.00018621
  38         0.00000000
  39        -0.00000000
  40        -0.00000325
  41        -0.00000000
  42        -0.00000000
  43        -0.00000867
  44         0.00000000
  45         0.00000000
  46        -0.00000000
  47        -0.00000000
  48         0.00000000
  49        -0.00000000
  50        -0.00000000
  51         0.00000000
  52         0.00000000
  53        -0.00000000
  54         0.00000000
  55         0.00000000
  56        -0.00000000
  57        -0.00000000
  58        -0.00000000
  59        -0.00000000
  60        -0.00000000
Sym=     3a  
Ene=    -1.0066
Spin= Alpha
Occup=    2.00000
   1        -0.01062294
   2         0.66622886
   3         0.00670236
   4         0.00384103
   5        -0.00000000
   6        -0.00000000
   7         0.10039823
   8         0.00000000
   9         0.00000000
  10        -0.00175320
  11         0.00000000
  12        -0.00000000
  13        -0.00467327
  14         0.00000000
  15         0.00000000
  16         0.00000000
  17         0.00000000
  18        -0.00000000
  19        -0.00000000
  20        -0.00000000
  21        -0.00000000
  22        -0.00000000
  23         0.00000000
  24        -0.00000000
  25        -0.00000000
  26        -0.00000000
  27         0.00000000
  28        -0.00000000
  29        -0.00000000
  30        -0.00000000
  31        -0.01062294
  32         0.66622886
  33         0.00670236
  34         0.00384103
  35         0.00000000
  36         0.00000000
  37        -0.10039823
  38        -0.00000000
  39         0.00000000
  40         0.00175320
  41         0.00000000
  42        -0.00000000
  43         0.00467327
  44        -0.00000000
  45         0.00000000
  46        -0.00000000
  47        -0.00000000
  48        -0.00000000
  49         0.00000000
  50        -0.00000000
  51         0.00000000
  52         0.00000000
  53         0.00000000
  54        -0.00000000
  55         0.00000000
  56         0.00000000
  57        -0.00000000
  58         0.00000000
  59         0.00000000
  60        -0.00000000
Sym=     4a  
Ene=    -0.9071
Spin= Alpha
Occup=    2.00000
   1         0.00743933
   2        -0.70392132
   3        -0.00707252
   4        -0.00406864
   5        -0.00000000
   6         0.00000000
   7         0.09571111
   8         0.00000000
   9        -0.00000000
  10        -0.00167135
  11         0.00000000
  12         0.00000000
  13        -0.00445510
  14        -0.00000000
  15         0.00000000
  16        -0.00000000
  17         0.00000000
  18        -0.00000000
  19         0.00000000
  20        -0.00000000
  21         0.00000000
  22        -0.00000000
  23         0.00000000
  24         0.00000000
  25        -0.00000000
  26         0.00000000
  27        -0.00000000
  28        -0.00000000
  29        -0.00000000
  30         0.00000000
  31        -0.00743933
  32         0.70392132
  33         0.00707252
  34         0.00406864
  35         0.00000000
  36        -0.00000000
  37         0.09571111
  38        -0.00000000
  39         0.00000000
  40        -0.00167135
  41        -0.00000000
  42        -0.00000000
  43        -0.00445510
  44        -0.00000000
  45         0.00000000
  46        -0.00000000
  47         0.00000000
  48         0.00000000
  49        -0.00000000
  50        -0.00000000
  51         0.00000000
  52        -0.00000000
  53        -0.00000000
  54        -0.00000000
  55         0.00000000
  56        -0.00000000
  57         0.00000000
  58        -0.00000000
  59        -0.00000000
  60         0.00000000
Sym=     5a  
Ene=    -0.6281
Spin= Alpha
Occup=    2.00000
   1         0.00231142
   2         0.15344405
   3         0.00153233
   4         0.00089760
   5         0.00000000
   6         0.00000000
   7        -0.69869864
   8        -0.00000000
   9        -0.00000000
  10         0.01220096
  11        -0.00000000
  12        -0.00000000
  13         0.03252256
  14         0.00000000
  15        -0.00000000
  16        -0.00000000
  17         0.00000000
  18        -0.00000000
  19        -0.00000000
  20         0.00000000
  21         0.00000000
  22        -0.00000000
  23         0.00000000
  24         0.00000000
  25         0.00000000
  26        -0.00000000
  27        -0.00000000
  28         0.00000000
  29        -0.00000000
  30        -0.00000000
  31         0.00231142
  32         0.15344405
  33         0.00153233
  34         0.00089760
  35         0.00000000
  36        -0.00000000
  37         0.69869864
  38         0.00000000
  39         0.00000000
  40        -0.01220096
  41        -0.00000000
  42         0.00000000
  43        -0.03252256
  44         0.00000000
  45        -0.00000000
  46         0.00000000
  47         0.00000000
  48        -0.00000000
  49         0.00000000
  50         0.00000000
  51        -0.00000000
  52        -0.00000000
  53         0.00000000
  54        -0.00000000
  55         0.00000000
  56        -0.00000000
  57        -0.00000000
  58         0.00000000
  59        -0.00000000
  60         0.00000000
Sym=     6a  
Ene=    -0.5892
Spin= Alpha
Occup=    2.00000
   1         0.00000000
   2         0.00000000
   3        -0.00000000
   4        -0.00000000
   5         0.73237401
   6        -0.03529564
   7        -0.00000000
   8        -0.01278902
   9         0.00061635
  10         0.00000000
  11        -0.03409006
  12         0.00164292
  13        -0.00000000
  14         0.00000000
  15         0.00000000
  16        -0.00000000
  17        -0.00000000
  18        -0.00000000
  19        -0.00000000
  20        -0.00000000
  21        -0.00000000
  22        -0.00000000
  23         0.00000000
  24        -0.00000000
  25        -0.00000000
  26         0.00000000
  27        -0.00000000
  28        -0.00000000
  29        -0.00000000
  30        -0.00000000
  31         0.00000000
  32         0.00000000
  33        -0.00000000
  34        -0.00000000
  35         0.73237401
  36        -0.03529564
  37        -0.00000000
  38        -0.01278902
  39         0.00061635
  40         0.00000000
  41        -0.03409006
  42         0.00164292
  43        -0.00000000
  44        -0.00000000
  45         0.00000000
  46        -0.00000000
  47        -0.00000000
  48         0.00000000
  49         0.00000000
  50        -0.00000000
  51         0.00000000
  52        -0.00000000
  53         0.00000000
  54        -0.00000000
  55        -0.00000000
  56        -0.00000000
  57        -0.00000000
  58        -0.00000000
  59         0.00000000
  60        -0.00000000
Sym=     7a  
Ene=    -0.5892
Spin= Alpha
Occup=    2.00000
   1         0.00000000
   2         0.00000000
   3        -0.00000000
   4        -0.00000000
   5         0.03529564
   6         0.73237401
   7        -0.00000000
   8        -0.00061635
   9        -0.01278902
  10         0.00000000
  11        -0.00164292
  12        -0.03409006
  13         0.00000000
  14        -0.00000000
  15        -0.00000000
  16        -0.00000000
  17         0.00000000
  18        -0.00000000
  19         0.00000000
  20         0.00000000
  21         0.00000000
  22        -0.00000000
  23        -0.00000000
  24         0.00000000
  25         0.00000000
  26        -0.00000000
  27        -0.00000000
  28         0.00000000
  29         0.00000000
  30        -0.00000000
  31         0.00000000
  32         0.00000000
  33        -0.00000000
  34        -0.00000000
  35         0.03529564
  36         0.73237401
  37        -0.00000000
  38        -0.00061635
  39        -0.01278902
  40         0.00000000
  41        -0.00164292
  42        -0.03409006
  43         0.00000000
  44         0.00000000
  45        -0.00000000
  46         0.00000000
  47         0.00000000
  48         0.00000000
  49        -0.00000000
  50        -0.00000000
  51        -0.00000000
  52         0.00000000
  53        -0.00000000
  54        -0.00000000
  55        -0.00000000
  56        -0.00000000
  57         0.00000000
  58        -0.00000000
  59         0.00000000
  60        -0.00000000
Sym=     8a  
Ene=    -0.5520
Spin= Alpha
Occup=    0.00000
   1         0.00000000
   2         0.00000000
   3        -0.00000000
   4        -0.00000000
   5        -0.73323884
   6        -0.19035167
   7         0.00000000
   8         0.01280412
   9         0.00332400
  10        -0.00000000
  11         0.03413031
  12         0.00886036
  13         0.00000000
  14        -0.00000000
  15        -0.00000000
  16         0.00000000
  17        -0.00000000
  18        -0.00000000
  19         0.00000000
  20         0.00000000
  21        -0.00000000
  22         0.00000000
  23        -0.00000000
  24         0.00000000
  25         0.00000000
  26        -0.00000000
  27        -0.00000000
  28        -0.00000000
  29         0.00000000
  30         0.00000000
  31         0.00000000
  32         0.00000000
  33        -0.00000000
  34        -0.00000000
  35         0.73323884
  36         0.19035167
  37         0.00000000
  38        -0.01280412
  39        -0.00332400
  40        -0.00000000
  41        -0.03413031
  42        -0.00886036
  43        -0.00000000
  44         0.00000000
  45        -0.00000000
  46        -0.00000000
  47        -0.00000000
  48         0.00000000
  49        -0.00000000
  50         0.00000000
  51         0.00000000
  52         0.00000000
  53        -0.00000000
  54         0.00000000
  55        -0.00000000
  56         0.00000000
  57         0.00000000
  58        -0.00000000
  59        -0.00000000
  60        -0.00000000
Sym=     9a  
Ene=    -0.5520
Spin= Alpha
Occup=    0.00000
   1         0.00000000
   2         0.00000000
   3        -0.00000000
   4        -0.00000000
   5         0.19035167
   6        -0.73323884
   7        -0.00000000
   8        -0.00332400
   9         0.01280412
  10         0.00000000
  11        -0.00886036
  12         0.03413031
  13         0.00000000
  14        -0.00000000
  15         0.00000000
  16         0.00000000
  17        -0.00000000
  18        -0.00000000
  19         0.00000000
  20        -0.00000000
  21        -0.00000000
  22         0.00000000
  23        -0.00000000
  24         0.00000000
  25        -0.00000000
  26         0.00000000
  27        -0.00000000
  28        -0.00000000
  29        -0.00000000
  30         0.00000000
  31         0.00000000
  32         0.00000000
  33        -0.00000000
  34        -0.00000000
  35        -0.19035167
  36         0.73323884
  37        -0.00000000
  38         0.00332400
  39        -0.01280412
  40         0.00000000
  41         0.00886036
  42        -0.03413031
  43         0.00000000
  44         0.00000000
  45         0.00000000
  46        -0.00000000
  47        -0.00000000
  48         0.00000000
  49        -0.00000000
  50        -0.00000000
  51         0.00000000
  52         0.00000000
  53        -0.00000000
  54         0.00000000
  55        -0.00000000
  56        -0.00000000
  57        -0.00000000
  58        -0.00000000
  59         0.00000000
  60        -0.00000000
Sym=    10a  
Ene=    -0.4900
Spin= Alpha
Occup=    0.00000
   1         0.00363775
   2         0.15722734
   3         0.00156708
   4         0.00092318
   5         0.00000000
   6         0.00000000
   7         0.79342912
   8         0.00000000
   9        -0.00000000
  10        -0.01385519
  11        -0.00000000
  12        -0.00000000
  13        -0.03693201
  14        -0.00000000
  15        -0.00000000
  16         0.00000000
  17        -0.00000000
  18         0.00000000
  19        -0.00000000
  20        -0.00000000
  21         0.00000000
  22         0.00000000
  23         0.00000000
  24        -0.00000000
  25        -0.00000000
  26        -0.00000000
  27         0.00000000
  28         0.00000000
  29         0.00000000
  30         0.00000000
  31        -0.00363775
  32        -0.15722734
  33        -0.00156708
  34        -0.00092318
  35        -0.00000000
  36        -0.00000000
  37         0.79342912
  38        -0.00000000
  39         0.00000000
  40        -0.01385519
  41        -0.00000000
  42         0.00000000
  43        -0.03693201
  44         0.00000000
  45        -0.00000000
  46         0.00000000
  47         0.00000000
  48        -0.00000000
  49         0.00000000
  50         0.00000000
  51        -0.00000000
  52         0.00000000
  53        -0.00000000
  54        -0.00000000
  55         0.00000000
  56         0.00000000
  57        -0.00000000
  58        -0.00000000
  59        -0.00000000
  60         0.00000000
Sym=    11a  
Ene=     3.9657
Spin= Alpha
Occup=    0.00000
   1         0.06680744
   2         0.25817006
   3        -0.11225757
   4         0.13887799
   5         0.00000000
   6        -0.00000000
   7         0.10302161
   8        -0.00000000
   9         0.00000000
  10        -0.80014956
  11         0.00000000
  12        -0.00000000
  13         1.35704905
  14        -0.00549480
  15         0.00000000
  16        -0.00000000
  17         0.00000000
  18         0.00000000
  19         0.02419239
  20        -0.00000000
  21         0.00000000
  22        -0.00000000
  23        -0.00000000
  24         0.00683909
  25        -0.00000000
  26        -0.00000000
  27         0.00000000
  28        -0.00000000
  29         0.00000000
  30         0.00000000
  31        -0.06680744
  32        -0.25817006
  33         0.11225757
  34        -0.13887799
  35        -0.00000000
  36        -0.00000000
  37         0.10302161
  38         0.00000000
  39         0.00000000
  40        -0.80014956
  41        -0.00000000
  42        -0.00000000
  43         1.35704905
  44         0.00549480
  45         0.00000000
  46        -0.00000000
  47         0.00000000
  48        -0.00000000
  49        -0.02419239
  50        -0.00000000
  51         0.00000000
  52        -0.00000000
  53         0.00000000
  54         0.00683909
  55        -0.00000000
  56         0.00000000
  57        -0.00000000
  58         0.00000000
  59         0.00000000
  60         0.00000000
Sym=    12a  
Ene=     4.0016
Spin= Alpha
Occup=    0.00000
   1         0.00000000
   2         0.00000000
   3        -0.00000000
   4        -0.00000000
   5        -0.00201323
   6         0.09683436
   7         0.00000000
   8         0.01659658
   9        -0.79827808
  10        -0.00000000
  11        -0.01720303
  12         0.82744774
  13         0.00000000
  14         0.00000000
  15         0.00010387
  16        -0.00499627
  17         0.00000000
  18        -0.00000000
  19         0.00000000
  20        -0.00077009
  21         0.03704030
  22        -0.00000000
  23         0.00000000
  24         0.00000000
  25         0.00000120
  26        -0.00005752
  27         0.00000000
  28        -0.00000000
  29        -0.00000000
  30        -0.00000000
  31        -0.00000000
  32        -0.00000000
  33         0.00000000
  34        -0.00000000
  35        -0.00201323
  36         0.09683436
  37         0.00000000
  38         0.01659658
  39        -0.79827808
  40        -0.00000000
  41        -0.01720303
  42         0.82744774
  43         0.00000000
  44         0.00000000
  45        -0.00010387
  46         0.00499627
  47         0.00000000
  48        -0.00000000
  49        -0.00000000
  50         0.00077009
  51        -0.03704030
  52        -0.00000000
  53         0.00000000
  54         0.00000000
  55         0.00000120
  56        -0.00005752
  57        -0.00000000
  58         0.00000000
  59         0.00000000
  60        -0.00000000
Sym=    13a  
Ene=     4.0016
Spin= Alpha
Occup=    0.00000
   1        -0.00000000
   2        -0.00000000
   3         0.00000000
   4         0.00000000
   5         0.09683436
   6         0.00201323
   7        -0.00000000
   8        -0.79827808
   9        -0.01659658
  10         0.00000000
  11         0.82744774
  12         0.01720303
  13        -0.00000000
  14         0.00000000
  15        -0.00499627
  16        -0.00010387
  17        -0.00000000
  18         0.00000000
  19        -0.00000000
  20         0.03704030
  21         0.00077009
  22         0.00000000
  23        -0.00000000
  24        -0.00000000
  25        -0.00005752
  26        -0.00000120
  27         0.00000000
  28        -0.00000000
  29         0.00000000
  30         0.00000000
  31         0.00000000
  32         0.00000000
  33        -0.00000000
  34         0.00000000
  35         0.09683436
  36         0.00201323
  37        -0.00000000
  38        -0.79827808
  39        -0.01659658
  40         0.00000000
  41         0.82744774
  42         0.01720303
  43        -0.00000000
  44         0.00000000
  45         0.00499627
  46         0.00010387
  47        -0.00000000
  48         0.00000000
  49        -0.00000000
  50        -0.03704030
  51        -0.00077009
  52         0.00000000
  53        -0.00000000
  54        -0.00000000
  55        -0.00005752
  56        -0.00000120
  57         0.00000000
  58        -0.00000000
  59         0.00000000
  60         0.00000000
Sym=    14a  
Ene=     4.0429
Spin= Alpha
Occup=    0.00000
   1        -0.00000000
   2        -0.00000000
   3         0.00000000
   4         0.00000000
   5        -0.00372873
   6        -0.10075643
   7        -0.00000000
   8         0.03033547
   9         0.81971447
  10         0.00000000
  11        -0.03780296
  12        -1.02149817
  13        -0.00000000
  14        -0.00000000
  15        -0.00031338
  16        -0.00846813
  17         0.00000000
  18        -0.00000000
  19        -0.00000000
  20         0.00223494
  21         0.06039180
  22        -0.00000000
  23         0.00000000
  24        -0.00000000
  25        -0.00000392
  26        -0.00010601
  27         0.00000000
  28         0.00000000
  29        -0.00000000
  30         0.00000000
  31        -0.00000000
  32        -0.00000000
  33        -0.00000000
  34         0.00000000
  35         0.00372873
  36         0.10075643
  37        -0.00000000
  38        -0.03033547
  39        -0.81971447
  40         0.00000000
  41         0.03780296
  42         1.02149817
  43        -0.00000000
  44        -0.00000000
  45        -0.00031338
  46        -0.00846813
  47         0.00000000
  48        -0.00000000
  49         0.00000000
  50         0.00223494
  51         0.06039180
  52        -0.00000000
  53         0.00000000
  54        -0.00000000
  55         0.00000392
  56         0.00010601
  57         0.00000000
  58         0.00000000
  59         0.00000000
  60        -0.00000000
Sym=    15a  
Ene=     4.0429
Spin= Alpha
Occup=    0.00000
   1        -0.00000000
   2        -0.00000000
   3        -0.00000000
   4         0.00000000
   5        -0.10075643
   6         0.00372873
   7         0.00000000
   8         0.81971447
   9        -0.03033547
  10        -0.00000000
  11        -1.02149817
  12         0.03780296
  13         0.00000000
  14        -0.00000000
  15        -0.00846813
  16         0.00031338
  17        -0.00000000
  18        -0.00000000
  19         0.00000000
  20         0.06039180
  21        -0.00223494
  22         0.00000000
  23         0.00000000
  24         0.00000000
  25        -0.00010601
  26         0.00000392
  27        -0.00000000
  28         0.00000000
  29        -0.00000000
  30        -0.00000000
  31        -0.00000000
  32        -0.00000000
  33         0.00000000
  34         0.00000000
  35         0.10075643
  36        -0.00372873
  37         0.00000000
  38        -0.81971447
  39         0.03033547
  40        -0.00000000
  41         1.02149817
  42        -0.03780296
  43         0.00000000
  44        -0.00000000
  45        -0.00846813
  46         0.00031338
  47         0.00000000
  48        -0.00000000
  49         0.00000000
  50         0.06039180
  51        -0.00223494
  52        -0.00000000
  53         0.00000000
  54        -0.00000000
  55         0.00010601
  56        -0.00000392
  57        -0.00000000
  58        -0.00000000
  59         0.00000000
  60        -0.00000000
Sym=    16a  
Ene=     4.1430
Spin= Alpha
Occup=    0.00000
   1        -0.19083257
   2        -0.69750487
   3         0.13879321
   4         0.78529007
   5        -0.00000000
   6         0.00000000
   7        -0.10892497
   8        -0.00000000
   9        -0.00000000
  10         0.80531021
  11         0.00000000
  12         0.00000000
  13        -0.79367988
  14        -0.03203357
  15         0.00000000
  16        -0.00000000
  17        -0.00000000
  18         0.00000000
  19         0.22061065
  20        -0.00000000
  21         0.00000000
  22         0.00000000
  23         0.00000000
  24         0.00970577
  25         0.00000000
  26         0.00000000
  27         0.00000000
  28        -0.00000000
  29        -0.00000000
  30        -0.00000000
  31        -0.19083257
  32        -0.69750487
  33         0.13879321
  34         0.78529007
  35        -0.00000000
  36        -0.00000000
  37         0.10892497
  38         0.00000000
  39        -0.00000000
  40        -0.80531021
  41        -0.00000000
  42         0.00000000
  43         0.79367988
  44        -0.03203357
  45         0.00000000
  46         0.00000000
  47        -0.00000000
  48         0.00000000
  49         0.22061065
  50        -0.00000000
  51        -0.00000000
  52         0.00000000
  53        -0.00000000
  54        -0.00970577
  55        -0.00000000
  56        -0.00000000
  57         0.00000000
  58        -0.00000000
  59         0.00000000
  60         0.00000000
Sym=    17a  
Ene=     4.4111
Spin= Alpha
Occup=    0.00000
   1         0.51796223
   2         1.89868538
   3        -0.41857448
   4        -1.74013136
   5        -0.00000000
   6        -0.00000000
   7        -0.02706920
   8        -0.00000000
   9         0.00000000
  10         0.11965276
  11         0.00000000
  12        -0.00000000
  13        -0.05109129
  14        -0.05523701
  15         0.00000000
  16        -0.00000000
  17         0.00000000
  18        -0.00000000
  19         0.42284198
  20        -0.00000000
  21         0.00000000
  22        -0.00000000
  23         0.00000000
  24         0.00907181
  25         0.00000000
  26         0.00000000
  27         0.00000000
  28         0.00000000
  29        -0.00000000
  30        -0.00000000
  31         0.51796223
  32         1.89868538
  33        -0.41857448
  34        -1.74013136
  35        -0.00000000
  36        -0.00000000
  37         0.02706920
  38        -0.00000000
  39        -0.00000000
  40        -0.11965276
  41         0.00000000
  42        -0.00000000
  43         0.05109129
  44        -0.05523701
  45         0.00000000
  46         0.00000000
  47        -0.00000000
  48        -0.00000000
  49         0.42284198
  50        -0.00000000
  51        -0.00000000
  52         0.00000000
  53         0.00000000
  54        -0.00907181
  55         0.00000000
  56         0.00000000
  57        -0.00000000
  58        -0.00000000
  59         0.00000000
  60        -0.00000000
Sym=    18a  
Ene=     4.4754
Spin= Alpha
Occup=    0.00000
   1        -0.00000000
   2        -0.00000000
   3         0.00000000
   4         0.00000000
   5         0.01216026
   6        -0.00293618
   7         0.00000000
   8        -0.08955540
   9         0.02162375
  10        -0.00000000
  11         0.12417575
  12        -0.02998306
  13         0.00000000
  14        -0.00000000
  15         0.09033759
  16        -0.02181261
  17        -0.00000000
  18         0.00000000
  19         0.00000000
  20        -0.70702701
  21         0.17071638
  22         0.00000000
  23        -0.00000000
  24         0.00000000
  25        -0.00760487
  26         0.00183625
  27        -0.00000000
  28         0.00000000
  29        -0.00000000
  30         0.00000000
  31        -0.00000000
  32        -0.00000000
  33         0.00000000
  34         0.00000000
  35         0.01216026
  36        -0.00293618
  37        -0.00000000
  38        -0.08955540
  39         0.02162375
  40         0.00000000
  41         0.12417575
  42        -0.02998306
  43        -0.00000000
  44        -0.00000000
  45        -0.09033759
  46         0.02181261
  47         0.00000000
  48         0.00000000
  49         0.00000000
  50         0.70702701
  51        -0.17071638
  52        -0.00000000
  53        -0.00000000
  54        -0.00000000
  55        -0.00760487
  56         0.00183625
  57         0.00000000
  58         0.00000000
  59        -0.00000000
  60        -0.00000000
Sym=    19a  
Ene=     4.4754
Spin= Alpha
Occup=    0.00000
   1         0.00000000
   2         0.00000000
   3        -0.00000000
   4        -0.00000000
   5         0.00293618
   6         0.01216026
   7        -0.00000000
   8        -0.02162375