[Molden Format]
[N_Atoms]
                    2
[Atoms] (AU)
N1          1      7           0.00000000      0.00000000      0.00000000
N2          2      7           0.00000000      0.00000000      4.53534270
[5D]
[7F]
[Charge] (Mulliken)
  -2.3512666169622776E-006
   2.3512665530134313E-006
[GTO] (AU)
   1
   s  10
  1.142000000E+04  5.229996559E-04
  1.712000000E+03  4.044997339E-03
  3.893000000E+02  2.077498633E-02
  1.100000000E+02  8.072694689E-02
  3.557000000E+01  2.330738467E-01
  1.254000000E+01  4.335007148E-01
  4.644000000E+00  3.474717714E-01
  1.293000000E+00  4.126197285E-02
  5.118000000E-01 -8.507994403E-03
  1.787000000E-01  2.383998432E-03
   s  10
  1.142000000E+04 -1.149999544E-04
  1.712000000E+03 -8.949996452E-04
  3.893000000E+02 -4.623998167E-03
  1.100000000E+02 -1.852799265E-02
  3.557000000E+01 -5.733897727E-02
  1.254000000E+01 -1.320759476E-01
  4.644000000E+00 -1.725099316E-01
  1.293000000E+00  1.518139398E-01
  5.118000000E-01  5.999437621E-01
  1.787000000E-01  3.874618464E-01
   s   1
  1.293000000E+00  1.000000000E+00
   s   1
  1.787000000E-01  1.000000000E+00
   p   5
  2.663000000E+01  1.467000345E-02
  5.948000000E+00  9.176402155E-02
  1.742000000E+00  2.986830701E-01
  5.550000000E-01  4.984871171E-01
  1.725000000E-01  3.370230791E-01
   p   1
  5.550000000E-01  1.000000000E+00
   p   1
  1.725000000E-01  1.000000000E+00
   d   1
  1.654000000E+00  1.000000000E+00
   d   1
  4.690000000E-01  1.000000000E+00
   f   1
  1.093000000E+00  1.000000000E+00
 
   2
   s  10
  1.142000000E+04  5.229996559E-04
  1.712000000E+03  4.044997339E-03
  3.893000000E+02  2.077498633E-02
  1.100000000E+02  8.072694689E-02
  3.557000000E+01  2.330738467E-01
  1.254000000E+01  4.335007148E-01
  4.644000000E+00  3.474717714E-01
  1.293000000E+00  4.126197285E-02
  5.118000000E-01 -8.507994403E-03
  1.787000000E-01  2.383998432E-03
   s  10
  1.142000000E+04 -1.149999544E-04
  1.712000000E+03 -8.949996452E-04
  3.893000000E+02 -4.623998167E-03
  1.100000000E+02 -1.852799265E-02
  3.557000000E+01 -5.733897727E-02
  1.254000000E+01 -1.320759476E-01
  4.644000000E+00 -1.725099316E-01
  1.293000000E+00  1.518139398E-01
  5.118000000E-01  5.999437621E-01
  1.787000000E-01  3.874618464E-01
   s   1
  1.293000000E+00  1.000000000E+00
   s   1
  1.787000000E-01  1.000000000E+00
   p   5
  2.663000000E+01  1.467000345E-02
  5.948000000E+00  9.176402155E-02
  1.742000000E+00  2.986830701E-01
  5.550000000E-01  4.984871171E-01
  1.725000000E-01  3.370230791E-01
   p   1
  5.550000000E-01  1.000000000E+00
   p   1
  1.725000000E-01  1.000000000E+00
   d   1
  1.654000000E+00  1.000000000E+00
   d   1
  4.690000000E-01  1.000000000E+00
   f   1
  1.093000000E+00  1.000000000E+00
 
[MO]
Sym=     1a  
Ene=     0.0000
Spin= Alpha
Occup=    0.00000
   1         0.67911549
   2         0.00028184
   3        -0.00108706
   4        -0.00020349
   5        -0.00000000
   6        -0.00000000
   7         0.00162099
   8        -0.00000000
   9        -0.00000000
  10        -0.00116539
  11         0.00000000
  12         0.00000000
  13        -0.00038719
  14        -0.00003622
  15        -0.00000000
  16        -0.00000000
  17        -0.00000000
  18         0.00000000
  19         0.00004453
  20         0.00000000
  21        -0.00000000
  22        -0.00000000
  23        -0.00000000
  24         0.00001084
  25        -0.00000000
  26         0.00000000
  27        -0.00000000
  28         0.00000000
  29         0.00000000
  30        -0.00000000
  31         0.73526225
  32         0.00027063
  33        -0.00117174
  34        -0.00016435
  35        -0.00000000
  36         0.00000000
  37        -0.00174643
  38        -0.00000000
  39        -0.00000000
  40         0.00126705
  41         0.00000000
  42        -0.00000000
  43         0.00038240
  44        -0.00004092
  45        -0.00000000
  46         0.00000000
  47         0.00000000
  48         0.00000000
  49         0.00005646
  50        -0.00000000
  51        -0.00000000
  52         0.00000000
  53         0.00000000
  54        -0.00001222
  55         0.00000000
  56        -0.00000000
  57        -0.00000000
  58         0.00000000
  59        -0.00000000
  60        -0.00000000
Sym=     2a  
Ene=     0.0000
Spin= Alpha
Occup=    0.00000
   1        -0.73506631
   2         0.00035603
   3         0.00100219
   4        -0.00066617
   5         0.00000000
   6        -0.00000000
   7        -0.00165195
   8        -0.00000000
   9         0.00000000
  10         0.00134232
  11        -0.00000000
  12         0.00000000
  13        -0.00007793
  14         0.00006137
  15         0.00000000
  16         0.00000000
  17         0.00000000
  18        -0.00000000
  19        -0.00016380
  20         0.00000000
  21        -0.00000000
  22         0.00000000
  23         0.00000000
  24        -0.00001948
  25         0.00000000
  26         0.00000000
  27         0.00000000
  28         0.00000000
  29         0.00000000
  30        -0.00000000
  31         0.67891606
  32        -0.00036451
  33        -0.00091974
  34         0.00067176
  35         0.00000000
  36         0.00000000
  37        -0.00151821
  38        -0.00000000
  39        -0.00000000
  40         0.00124565
  41        -0.00000000
  42        -0.00000000
  43        -0.00010864
  44        -0.00005858
  45         0.00000000
  46         0.00000000
  47         0.00000000
  48         0.00000000
  49         0.00015997
  50        -0.00000000
  51        -0.00000000
  52         0.00000000
  53        -0.00000000
  54        -0.00001857
  55         0.00000000
  56         0.00000000
  57        -0.00000000
  58        -0.00000000
  59        -0.00000000
  60        -0.00000000
Sym=     3a  
Ene=     0.0000
Spin= Alpha
Occup=    0.00000
   1        -0.00056692
   2         0.70997533
   3         0.00862045
   4        -0.03076060
   5         0.00000000
   6         0.00000000
   7         0.01195673
   8        -0.00000000
   9         0.00000000
  10         0.00121786
  11         0.00000000
  12        -0.00000000
  13         0.00562279
  14         0.00008134
  15        -0.00000000
  16        -0.00000000
  17        -0.00000000
  18         0.00000000
  19         0.00414175
  20        -0.00000000
  21         0.00000000
  22        -0.00000000
  23         0.00000000
  24         0.00070139
  25         0.00000000
  26         0.00000000
  27         0.00000000
  28        -0.00000000
  29        -0.00000000
  30        -0.00000000
  31        -0.00056024
  32         0.71002398
  33         0.00861243
  34        -0.03077698
  35         0.00000000
  36        -0.00000000
  37        -0.01195422
  38        -0.00000000
  39         0.00000000
  40        -0.00121839
  41         0.00000000
  42         0.00000000
  43        -0.00562043
  44         0.00008122
  45        -0.00000000
  46         0.00000000
  47         0.00000000
  48        -0.00000000
  49         0.00414100
  50        -0.00000000
  51         0.00000000
  52         0.00000000
  53         0.00000000
  54        -0.00070167
  55         0.00000000
  56         0.00000000
  57         0.00000000
  58         0.00000000
  59         0.00000000
  60        -0.00000000
Sym=     4a  
Ene=     0.0000
Spin= Alpha
Occup=    0.00000
   1        -0.00319392
   2        -0.74802659
   3        -0.00959664
   4         0.04301085
   5        -0.00000000
   6         0.00000000
   7         0.06104981
   8         0.00000000
   9        -0.00000000
  10         0.00040929
  11        -0.00000000
  12         0.00000000
  13        -0.00236202
  14         0.00061390
  15         0.00000000
  16         0.00000000
  17         0.00000000
  18        -0.00000000
  19         0.00226234
  20         0.00000000
  21        -0.00000000
  22         0.00000000
  23         0.00000000
  24         0.00023766
  25         0.00000000
  26         0.00000000
  27         0.00000000
  28        -0.00000000
  29        -0.00000000
  30         0.00000000
  31         0.00320045
  32         0.74801460
  33         0.00958747
  34        -0.04302200
  35        -0.00000000
  36        -0.00000000
  37         0.06105049
  38        -0.00000000
  39         0.00000000
  40         0.00040986
  41        -0.00000000
  42        -0.00000000
  43        -0.00236161
  44        -0.00061447
  45        -0.00000000
  46         0.00000000
  47         0.00000000
  48         0.00000000
  49        -0.00226180
  50        -0.00000000
  51         0.00000000
  52         0.00000000
  53        -0.00000000
  54         0.00023733
  55        -0.00000000
  56        -0.00000000
  57        -0.00000000
  58        -0.00000000
  59        -0.00000000
  60         0.00000000
Sym=     5a  
Ene=     0.0000
Spin= Alpha
Occup=    0.00000
   1         0.00731382
   2         0.10587238
   3         0.00269848
   4        -0.02178140
   5         0.00000000
   6         0.00000000
   7        -0.61819415
   8         0.00000000
   9         0.00000000
  10         0.00776802
  11         0.00000000
  12         0.00000000
  13        -0.05751378
  14        -0.00224810
  15        -0.00000000
  16        -0.00000000
  17         0.00000000
  18         0.00000000
  19        -0.01545185
  20        -0.00000000
  21        -0.00000000
  22         0.00000000
  23         0.00000000
  24        -0.00154190
  25        -0.00000000
  26        -0.00000000
  27        -0.00000000
  28         0.00000000
  29         0.00000000
  30        -0.00000000
  31         0.00731587
  32         0.10587448
  33         0.00269610
  34        -0.02178746
  35        -0.00000000
  36        -0.00000000
  37         0.61820256
  38         0.00000000
  39        -0.00000000
  40        -0.00776336
  41        -0.00000000
  42         0.00000000
  43         0.05751953
  44        -0.00224848
  45        -0.00000000
  46         0.00000000
  47        -0.00000000
  48        -0.00000000
  49        -0.01545124
  50        -0.00000000
  51        -0.00000000
  52        -0.00000000
  53         0.00000000
  54         0.00154179
  55         0.00000000
  56         0.00000000
  57        -0.00000000
  58         0.00000000
  59        -0.00000000
  60        -0.00000000
Sym=     6a  
Ene=     0.0000
Spin= Alpha
Occup=    0.00000
   1        -0.00000000
   2         0.00000000
   3         0.00000000
   4         0.00000000
   5        -0.00794811
   6         0.63799854
   7         0.00000000
   8         0.00023414
   9        -0.01879469
  10         0.00000000
  11        -0.00108959
  12         0.08746185
  13         0.00000000
  14         0.00000000
  15        -0.00001375
  16         0.00110408
  17         0.00000000
  18         0.00000000
  19        -0.00000000
  20        -0.00015524
  21         0.01246128
  22        -0.00000000
  23        -0.00000000
  24         0.00000000
  25        -0.00001129
  26         0.00090597
  27        -0.00000000
  28         0.00000000
  29         0.00000000
  30         0.00000001
  31         0.00000000
  32        -0.00000000
  33        -0.00000000
  34        -0.00000000
  35        -0.00794805
  36         0.63799350
  37         0.00000000
  38         0.00023420
  39        -0.01879957
  40         0.00000000
  41        -0.00108959
  42         0.08746222
  43         0.00000000
  44        -0.00000000
  45         0.00001376
  46        -0.00110481
  47         0.00000000
  48        -0.00000000
  49         0.00000000
  50         0.00015522
  51        -0.01245993
  52        -0.00000000
  53        -0.00000000
  54         0.00000000
  55        -0.00001129
  56         0.00090591
  57        -0.00000000
  58         0.00000000
  59         0.00000000
  60         0.00000001
Sym=     7a  
Ene=     0.0000
Spin= Alpha
Occup=    0.00000
   1         0.00000000
   2        -0.00000000
   3        -0.00000000
   4        -0.00000000
   5         0.63799847
   6         0.00794811
   7        -0.00000000
   8        -0.01879469
   9        -0.00023414
  10         0.00000000
  11         0.08746185
  12         0.00108959
  13        -0.00000000
  14         0.00000000
  15         0.00110408
  16         0.00001375
  17        -0.00000000
  18        -0.00000000
  19         0.00000000
  20         0.01246128
  21         0.00015524
  22        -0.00000000
  23         0.00000000
  24         0.00000000
  25         0.00090597
  26         0.00001129
  27         0.00000000
  28        -0.00000000
  29        -0.00000001
  30         0.00000000
  31        -0.00000000
  32         0.00000000
  33         0.00000000
  34         0.00000000
  35         0.63799356
  36         0.00794805
  37        -0.00000000
  38        -0.01879957
  39        -0.00023420
  40         0.00000000
  41         0.08746223
  42         0.00108959
  43        -0.00000000
  44        -0.00000000
  45        -0.00110481
  46        -0.00001376
  47         0.00000000
  48         0.00000000
  49        -0.00000000
  50        -0.01245993
  51        -0.00015522
  52        -0.00000000
  53         0.00000000
  54         0.00000000
  55         0.00090591
  56         0.00001129
  57         0.00000000
  58        -0.00000000
  59        -0.00000001
  60         0.00000000
Sym=     8a  
Ene=     0.0000
Spin= Alpha
Occup=    0.00000
   1        -0.00000000
   2         0.00000000
   3         0.00000000
   4        -0.00000000
   5         0.00326157
   6        -0.66993712
   7         0.00000000
   8        -0.00009981
   9         0.02050061
  10        -0.00000000
  11         0.00047313
  12        -0.09718161
  13        -0.00000000
  14         0.00000000
  15         0.00000096
  16        -0.00019679
  17         0.00000000
  18        -0.00000000
  19         0.00000000
  20        -0.00004681
  21         0.00961469
  22         0.00000000
  23        -0.00000000
  24         0.00000000
  25        -0.00000404
  26         0.00082911
  27        -0.00000000
  28        -0.00000000
  29        -0.00000000
  30        -0.00000000
  31         0.00000000
  32         0.00000000
  33        -0.00000000
  34        -0.00000000
  35        -0.00326163
  36         0.66994972
  37        -0.00000000
  38         0.00009983
  39        -0.02050598
  40         0.00000000
  41        -0.00047313
  42         0.09718321
  43         0.00000000
  44        -0.00000000
  45         0.00000096
  46        -0.00019708
  47        -0.00000000
  48        -0.00000000
  49         0.00000000
  50        -0.00004681
  51         0.00961515
  52         0.00000000
  53         0.00000000
  54         0.00000000
  55         0.00000404
  56        -0.00082905
  57        -0.00000000
  58         0.00000000
  59        -0.00000000
  60        -0.00000003
Sym=     9a  
Ene=     0.0000
Spin= Alpha
Occup=    0.00000
   1        -0.00000000
   2        -0.00000000
   3        -0.00000000
   4         0.00000000
   5         0.66993717
   6         0.00326157
   7         0.00000000
   8        -0.02050061
   9        -0.00009981
  10        -0.00000000
  11         0.09718162
  12         0.00047313
  13         0.00000000
  14         0.00000000
  15         0.00019679
  16         0.00000096
  17         0.00000000
  18         0.00000000
  19         0.00000000
  20        -0.00961469
  21        -0.00004681
  22         0.00000000
  23        -0.00000000
  24        -0.00000000
  25        -0.00082911
  26        -0.00000404
  27         0.00000000
  28         0.00000000
  29        -0.00000000
  30         0.00000000
  31        -0.00000000
  32        -0.00000000
  33        -0.00000000
  34         0.00000000
  35        -0.66994967
  36        -0.00326163
  37        -0.00000000
  38         0.02050598
  39         0.00009983
  40         0.00000000
  41        -0.09718320
  42        -0.00047313
  43        -0.00000000
  44         0.00000000
  45         0.00019708
  46         0.00000096
  47         0.00000000
  48        -0.00000000
  49         0.00000000
  50        -0.00961515
  51        -0.00004681
  52        -0.00000000
  53         0.00000000
  54         0.00000000
  55         0.00082905
  56         0.00000404
  57        -0.00000000
  58        -0.00000000
  59        -0.00000003
  60         0.00000000
Sym=    10a  
Ene=     0.0000
Spin= Alpha
Occup=    0.00000
   1         0.00537291
   2         0.14854403
   3         0.00130847
   4         0.00858312
   5         0.00000000
   6         0.00000000
   7         0.70715809
   8        -0.00000000
   9         0.00000000
  10        -0.02903788
  11         0.00000000
  12         0.00000000
  13         0.14628043
  14        -0.00161598
  15         0.00000000
  16         0.00000000
  17         0.00000000
  18         0.00000000
  19        -0.01056603
  20         0.00000000
  21         0.00000000
  22        -0.00000000
  23        -0.00000000
  24        -0.00135132
  25         0.00000000
  26         0.00000000
  27         0.00000000
  28         0.00000000
  29         0.00000000
  30         0.00000000
  31        -0.00537453
  32        -0.14855067
  33        -0.00130681
  34        -0.00857893
  35         0.00000000
  36         0.00000000
  37         0.70713687
  38        -0.00000000
  39        -0.00000000
  40        -0.02903194
  41         0.00000000
  42         0.00000000
  43         0.14628246
  44         0.00161638
  45        -0.00000000
  46        -0.00000000
  47         0.00000000
  48         0.00000000
  49         0.01056629
  50        -0.00000000
  51        -0.00000000
  52        -0.00000000
  53        -0.00000000
  54        -0.00135164
  55         0.00000000
  56         0.00000000
  57        -0.00000000
  58        -0.00000000
  59         0.00000000
  60         0.00000000
Sym=    11a  
Ene=     0.0000
Spin= Alpha
Occup=    0.00000
   1        -0.00000000
   2        -0.00000000
   3         0.00000000
   4         0.00000000
   5         0.00016968
   6        -0.51885180
   7         0.00000000
   8         0.00010536
   9        -0.32215789
  10         0.00000000
  11        -0.00030686
  12         0.93829771
  13        -0.00000000
  14         0.00000000
  15         0.00000008
  16        -0.00024902
  17        -0.00000000
  18        -0.00000000
  19        -0.00000000
  20        -0.00001070
  21         0.03271232
  22         0.00000000
  23        -0.00000000
  24        -0.00000000
  25        -0.00000031
  26         0.00096069
  27         0.00000000
  28        -0.00000000
  29         0.00000000
  30         0.00000001
  31         0.00000000
  32         0.00000000
  33        -0.00000000
  34        -0.00000000
  35         0.00016969
  36        -0.51887119
  37         0.00000000
  38         0.00010536
  39        -0.32216228
  40         0.00000000
  41        -0.00030686
  42         0.93832775
  43        -0.00000000
  44        -0.00000000
  45        -0.00000008
  46         0.00024820
  47         0.00000000
  48         0.00000000
  49         0.00000000
  50         0.00001070
  51        -0.03270868
  52        -0.00000000
  53         0.00000000
  54        -0.00000000
  55        -0.00000031
  56         0.00096068
  57        -0.00000000
  58        -0.00000000
  59         0.00000000
  60         0.00000006
Sym=    12a  
Ene=     0.0000
Spin= Alpha
Occup=    0.00000
   1         0.00000000
   2         0.00000000
   3        -0.00000000
   4        -0.00000000
   5         0.51885180
   6         0.00016968
   7        -0.00000000
   8         0.32215789
   9         0.00010536
  10        -0.00000000
  11        -0.93829770
  12        -0.00030686
  13         0.00000000
  14        -0.00000000
  15         0.00024902
  16         0.00000008
  17         0.00000000
  18         0.00000000
  19         0.00000000
  20        -0.03271232
  21        -0.00001070
  22         0.00000000
  23        -0.00000000
  24         0.00000000
  25        -0.00096069
  26        -0.00000031
  27         0.00000000
  28        -0.00000000
  29         0.00000001
  30        -0.00000000
  31        -0.00000000
  32        -0.00000000
  33         0.00000000
  34         0.00000000
  35         0.51887119
  36         0.00016969
  37        -0.00000000
  38         0.32216228
  39         0.00010536
  40        -0.00000000
  41        -0.93832777
  42        -0.00030686
  43         0.00000000
  44         0.00000000
  45        -0.00024820
  46        -0.00000008
  47        -0.00000000
  48        -0.00000000
  49        -0.00000000
  50         0.03270868
  51         0.00001070
  52        -0.00000000
  53        -0.00000000
  54         0.00000000
  55        -0.00096068
  56        -0.00000031
  57         0.00000000
  58         0.00000000
  59         0.00000006
  60        -0.00000000
Sym=    13a  
Ene=     0.0000
Spin= Alpha
Occup=    0.00000
   1         0.13918288
   2         0.75155392
   3        -0.03623822
   4        -0.63271767
   5        -0.00000000
   6        -0.00000000
   7        -0.37847786
   8        -0.00000000
   9        -0.00000000
  10        -0.34172884
  11         0.00000000
  12         0.00000000
  13         1.10294420
  14        -0.01121663
  15         0.00000000
  16        -0.00000000
  17         0.00000000
  18         0.00000000
  19         0.03571528
  20         0.00000000
  21         0.00000000
  22        -0.00000000
  23        -0.00000000
  24         0.00422983
  25        -0.00000000
  26        -0.00000000
  27        -0.00000000
  28        -0.00000000
  29        -0.00000000
  30         0.00000000
  31        -0.13927950
  32        -0.75199977
  33         0.03627889
  34         0.63317622
  35        -0.00000000
  36        -0.00000000
  37        -0.37847294
  38        -0.00000000
  39        -0.00000000
  40        -0.34175293
  41         0.00000000
  42         0.00000000
  43         1.10299198
  44         0.01121843
  45        -0.00000000
  46         0.00000000
  47         0.00000000
  48         0.00000000
  49        -0.03571514
  50        -0.00000000
  51        -0.00000000
  52        -0.00000000
  53        -0.00000000
  54         0.00423004
  55        -0.00000000
  56        -0.00000000
  57         0.00000000
  58         0.00000000
  59         0.00000000
  60         0.00000000
Sym=    14a  
Ene=     0.0000
Spin= Alpha
Occup=    0.00000
   1        -0.32328945
   2        -1.59600466
   3         0.08699722
   4         1.70562698
   5         0.00000000
   6        -0.00000000
   7         0.09080404
   8         0.00000000
   9        -0.00000000
  10         0.13712101
  11        -0.00000000
  12         0.00000000
  13        -0.34898952
  14         0.00103436
  15        -0.00000000
  16         0.00000000
  17        -0.00000000
  18        -0.00000000
  19         0.02536027
  20         0.00000000
  21         0.00000000
  22         0.00000000
  23         0.00000000
  24         0.00096543
  25         0.00000000
  26         0.00000000
  27         0.00000000
  28         0.00000000
  29        -0.00000000
  30         0.00000000
  31        -0.32331352
  32        -1.59601784
  33         0.08703565
  34         1.70569060
  35        -0.00000000
  36        -0.00000000
  37        -0.09069810
  38        -0.00000000
  39        -0.00000000
  40        -0.13701243
  41         0.00000000
  42         0.00000000
  43         0.34862627
  44         0.00103233
  45        -0.00000000
  46         0.00000000
  47         0.00000000
  48         0.00000000
  49         0.02536196
  50         0.00000000
  51        -0.00000000
  52        -0.00000000
  53        -0.00000000
  54        -0.00096728
  55        -0.00000000
  56         0.00000000
  57         0.00000000
  58         0.00000000
  59        -0.00000000
  60         0.00000000
Sym=    15a  
Ene=     0.0000
Spin= Alpha
Occup=    0.00000
   1        -0.00000000
   2        -0.00000000
   3         0.00000000
   4         0.00000000
   5        -0.00035195
   6         0.48616784
   7        -0.00000000
   8        -0.00026092
   9         0.36042400
  10        -0.00000000
  11         0.00080401
  12        -1.11062111
  13         0.00000000
  14         0.00000000
  15         0.00000019
  16        -0.00026851
  17        -0.00000000
  18        -0.00000000
  19        -0.00000000
  20        -0.00004061
  21         0.05609145
  22         0.00000000
  23         0.00000000
  24        -0.00000000
  25        -0.00000048
  26         0.00065835
  27         0.00000000
  28         0.00000000
  29         0.00000000
  30         0.00000001
  31         0.00000000
  32         0.00000000
  33         0.00000000
  34        -0.00000000
  35         0.00035194
  36        -0.48616026
  37         0.00000000
  38         0.00026091
  39        -0.36041051
  40        -0.00000000
  41        -0.00080399
  42         1.11059609
  43        -0.00000000
  44        -0.00000000
  45         0.00000019
  46        -0.00026797
  47        -0.00000000
  48         0.00000000
  49        -0.00000000
  50        -0.00004061
  51         0.05609039
  52         0.00000000
  53         0.00000000
  54         0.00000000
  55         0.00000048
  56        -0.00065786
  57         0.00000000
  58        -0.00000000
  59        -0.00000000
  60        -0.00000008
Sym=    16a  
Ene=     0.0000
Spin= Alpha
Occup=    0.00000
   1        -0.00000000
   2        -0.00000000
   3         0.00000000
   4         0.00000000
   5         0.48616784
   6         0.00035195
   7        -0.00000000
   8         0.36042400
   9         0.00026092
  10        -0.00000000
  11        -1.11062112
  12        -0.00080401
  13         0.00000000
  14         0.00000000
  15        -0.00026851
  16        -0.00000019
  17        -0.00000000
  18         0.00000000
  19        -0.00000000
  20         0.05609145
  21         0.00004061
  22         0.00000000
  23         0.00000000
  24        -0.00000000
  25         0.00065835
  26         0.00000048
  27         0.00000000
  28         0.00000000
  29        -0.00000001
  30         0.00000000
  31        -0.00000000
  32        -0.00000000
  33        -0.00000000
  34         0.00000000
  35        -0.48616025
  36        -0.00035194
  37         0.00000000
  38        -0.36041050
  39        -0.00026091
  40         0.00000000
  41         1.11059608
  42         0.00080399
  43        -0.00000000
  44         0.00000000
  45        -0.00026797
  46        -0.00000019
  47        -0.00000000
  48        -0.00000000
  49        -0.00000000
  50         0.05609039
  51         0.00004061
  52         0.00000000
  53         0.00000000
  54         0.00000000
  55        -0.00065786
  56        -0.00000048
  57        -0.00000000
  58         0.00000000
  59         0.00000008
  60        -0.00000000
Sym=    17a  
Ene=     0.0000
Spin= Alpha
Occup=    0.00000
   1         0.08489968
   2         0.48798561
   3        -0.01707925
   4        -0.38086039
   5         0.00000000
   6         0.00000000
   7         0.54582559
   8         0.00000000
   9         0.00000000
  10         0.31390584
  11        -0.00000000
  12        -0.00000000
  13        -0.88948204
  14        -0.01339870
  15         0.00000000
  16         0.00000000
  17         0.00000000
  18         0.00000000
  19         0.10418452
  20         0.00000000
  21         0.00000000
  22        -0.00000000
  23        -0.00000000
  24         0.00744501
  25         0.00000000
  26         0.00000000
  27         0.00000000
  28         0.00000000
  29         0.00000000
  30        -0.00000000
  31         0.08491860
  32         0.48804681
  33        -0.01709382
  34        -0.38094086
  35        -0.00000000
  36        -0.00000000
  37        -0.54584060
  38        -0.00000000
  39        -0.00000000
  40        -0.31394187
  41         0.00000000
  42         0.00000000
  43         0.88957172
  44        -0.01340076
  45         0.00000000
  46         0.00000000
  47        -0.00000000
  48        -0.00000000
  49         0.10419785
  50         0.00000000
  51         0.00000000
  52         0.00000000
  53         0.00000000
  54        -0.00744431
  55        -0.00000000
  56        -0.00000000
  57         0.00000000
  58         0.00000000
  59         0.00000000
  60        -0.00000000
Sym=    18a  
Ene=     0.0000
Spin= Alpha
Occup=    0.00000
   1        -0.33283006
   2        -1.54141782
   3         0.06377887
   4         1.97680554
   5         0.00000000
   6        -0.00000000
   7        -0.18127884
   8        -0.00000000
   9        -0.00000000
  10        -0.22160648
  11         0.00000000
  12         0.00000000
  13         0.91639271
  14        -0.00224033
  15        -0.00000000
  16        -0.00000000
  17        -0.00000000
  18        -0.00000000
  19        -0.21108426
  20         0.00000000
  21        -0.00000000
  22         0.00000000
  23         0.00000000
  24         0.00389823
  25        -0.00000000
  26        -0.00000000
  27        -0.00000000
  28        -0.00000000
  29        -0.00000000
  30        -0.00000000
  31         0.33283160
  32         1.54133726
  33        -0.06381560
  34        -1.97669928
  35        -0.00000000
  36        -0.00000000
  37        -0.18124023
  38        -0.00000000
  39         0.00000000
  40        -0.22161354
  41         0.00000000
  42        -0.00000000
  43         0.91637006
  44         0.00223864
  45         0.00000000
  46         0.00000000
  47        -0.00000000
  48        -0.00000000
  49         0.21112002
  50        -0.00000000
  51        -0.00000000
  52         0.00000000
  53         0.00000000
  54         0.00389848
  55        -0.00000000
  56        -0.00000000
  57         0.00000000
  58         0.00000000
  59        -0.00000000
  60        -0.00000000
Sym=    19a  
Ene=     0.0000
Spin= Alpha
Occup=    0.00000
   1         0.03979674
   2         0.11101921
   3        -0.03072738
   4        -0.14353423
   5        -0.00000000
   6         0.00000000
   7        -0.22084624
   8        -0.00000000