 Entering Gaussian System, Link 0=g16
 Initial command:
 /public/home/zyli/senxu/soft/g16/l1.exe "/tmp/Gau-11484.inp" -scrdir="/tmp/"
 Entering Link 1 = /public/home/zyli/senxu/soft/g16/l1.exe PID=     11485.
  
 Copyright (c) 1988-2019, Gaussian, Inc.  All Rights Reserved.
  
 This is part of the Gaussian(R) 16 program.  It is based on
 the Gaussian(R) 09 system (copyright 2009, Gaussian, Inc.),
 the Gaussian(R) 03 system (copyright 2003, Gaussian, Inc.),
 the Gaussian(R) 98 system (copyright 1998, Gaussian, Inc.),
 the Gaussian(R) 94 system (copyright 1995, Gaussian, Inc.),
 the Gaussian 92(TM) system (copyright 1992, Gaussian, Inc.),
 the Gaussian 90(TM) system (copyright 1990, Gaussian, Inc.),
 the Gaussian 88(TM) system (copyright 1988, Gaussian, Inc.),
 the Gaussian 86(TM) system (copyright 1986, Carnegie Mellon
 University), and the Gaussian 82(TM) system (copyright 1983,
 Carnegie Mellon University). Gaussian is a federally registered
 trademark of Gaussian, Inc.
  
 This software contains proprietary and confidential information,
 including trade secrets, belonging to Gaussian, Inc.
  
 This software is provided under written license and may be
 used, copied, transmitted, or stored only in accord with that
 written license.
  
 The following legend is applicable only to US Government
 contracts under FAR:
  
                    RESTRICTED RIGHTS LEGEND
  
 Use, reproduction and disclosure by the US Government is
 subject to restrictions as set forth in subparagraphs (a)
 and (c) of the Commercial Computer Software - Restricted
 Rights clause in FAR 52.227-19.
  
 Gaussian, Inc.
 340 Quinnipiac St., Bldg. 40, Wallingford CT 06492
  
  
 ---------------------------------------------------------------
 Warning -- This program may not be used in any manner that
 competes with the business of Gaussian, Inc. or will provide
 assistance to any competitor of Gaussian, Inc.  The licensee
 of this program is prohibited from giving any competitor of
 Gaussian, Inc. access to this program.  By using this program,
 the user acknowledges that Gaussian, Inc. is engaged in the
 business of creating and licensing software in the field of
 computational chemistry and represents and warrants to the
 licensee that it is not a competitor of Gaussian, Inc. and that
 it will not use this program in any manner prohibited above.
 ---------------------------------------------------------------
  

 Cite this work as:
 Gaussian 16, Revision C.01,
 M. J. Frisch, G. W. Trucks, H. B. Schlegel, G. E. Scuseria, 
 M. A. Robb, J. R. Cheeseman, G. Scalmani, V. Barone, 
 G. A. Petersson, H. Nakatsuji, X. Li, M. Caricato, A. V. Marenich, 
 J. Bloino, B. G. Janesko, R. Gomperts, B. Mennucci, H. P. Hratchian, 
 J. V. Ortiz, A. F. Izmaylov, J. L. Sonnenberg, D. Williams-Young, 
 F. Ding, F. Lipparini, F. Egidi, J. Goings, B. Peng, A. Petrone, 
 T. Henderson, D. Ranasinghe, V. G. Zakrzewski, J. Gao, N. Rega, 
 G. Zheng, W. Liang, M. Hada, M. Ehara, K. Toyota, R. Fukuda, 
 J. Hasegawa, M. Ishida, T. Nakajima, Y. Honda, O. Kitao, H. Nakai, 
 T. Vreven, K. Throssell, J. A. Montgomery, Jr., J. E. Peralta, 
 F. Ogliaro, M. J. Bearpark, J. J. Heyd, E. N. Brothers, K. N. Kudin, 
 V. N. Staroverov, T. A. Keith, R. Kobayashi, J. Normand, 
 K. Raghavachari, A. P. Rendell, J. C. Burant, S. S. Iyengar, 
 J. Tomasi, M. Cossi, J. M. Millam, M. Klene, C. Adamo, R. Cammi, 
 J. W. Ochterski, R. L. Martin, K. Morokuma, O. Farkas, 
 J. B. Foresman, and D. J. Fox, Gaussian, Inc., Wallingford CT, 2019.
 
 ******************************************
 Gaussian 16:  ES64L-G16RevC.01  3-Jul-2019
                 9-Feb-2023 
 ******************************************
 %chk=is_cc-pvdz.chk
 %mem=8GB
 %nprocshared=8
 Will use up to    8 processors via shared memory.
 ------------------------------------------
 #p RHF/cc-pvdz nosymm int=nobasistransform
 ------------------------------------------
 1/38=1,172=1/1;
 2/12=2,15=1,17=6,18=5,40=1/2;
 3/5=16,11=1,25=1,30=1,60=-1,116=1/1,2,3;
 4//1;
 5/5=2,38=5/2;
 6/7=2,8=2,9=2,10=2,28=1/1;
 99/5=1,9=1/99;
 Leave Link    1 at Thu Feb  9 09:21:58 2023, MaxMem=  1073741824 cpu:               0.3 elap:               0.0
 (Enter /public/home/zyli/senxu/soft/g16/l101.exe)
 -----
 title
 -----
 Symbolic Z-matrix:
 Charge =  0 Multiplicity = 1
 C                    -1.73789  -0.69506   0.98239 
 C                    -1.73814   0.69449   0.98243 
 C                     0.35662   1.42222   1.53003 
 C                     1.18009   0.71066   0.6766 
 C                     1.18034  -0.71033   0.6766 
 C                     0.35706  -1.42218   1.52998 
 C                    -1.71919  -1.14111  -0.43489 
 C                    -1.71963   1.14063  -0.43483 
 H                     0.28618   2.49934   1.42665 
 H                     0.28694  -2.49931   1.42655 
 O                    -1.80405   2.24075  -0.90468 
 O                    -1.80312  -2.24124  -0.90481 
 H                     0.11851  -1.02187   2.50696 
 H                     0.11822   1.0218    2.507 
 H                    -2.14435  -1.34081   1.74962 
 H                    -2.14479   1.34006   1.74971 
 Cl                    2.00172  -1.58673  -0.59103 
 Cl                    2.00111   1.58733  -0.59107 
 O                    -1.58337  -0.00019  -1.23058 
 
 ITRead=  0  0  0  0  0  0  0  0  0  0  0  0  0  0  0  0  0  0  0
 MicOpt= -1 -1 -1 -1 -1 -1 -1 -1 -1 -1 -1 -1 -1 -1 -1 -1 -1 -1 -1
 NAtoms=     19 NQM=       19 NQMF=       0 NMMI=      0 NMMIF=      0
                NMic=       0 NMicF=      0.
                    Isotopes and Nuclear Properties:
 (Nuclear quadrupole moments (NQMom) in fm**2, nuclear magnetic moments (NMagM)
  in nuclear magnetons)

  Atom         1           2           3           4           5           6           7           8           9          10
 IAtWgt=          12          12          12          12          12          12          12          12           1           1
 AtmWgt=  12.0000000  12.0000000  12.0000000  12.0000000  12.0000000  12.0000000  12.0000000  12.0000000   1.0078250   1.0078250
 NucSpn=           0           0           0           0           0           0           0           0           1           1
 AtZEff=  -0.0000000  -0.0000000  -0.0000000  -0.0000000  -0.0000000  -0.0000000  -0.0000000  -0.0000000  -0.0000000  -0.0000000
 NQMom=    0.0000000   0.0000000   0.0000000   0.0000000   0.0000000   0.0000000   0.0000000   0.0000000   0.0000000   0.0000000
 NMagM=    0.0000000   0.0000000   0.0000000   0.0000000   0.0000000   0.0000000   0.0000000   0.0000000   2.7928460   2.7928460
 AtZNuc=   6.0000000   6.0000000   6.0000000   6.0000000   6.0000000   6.0000000   6.0000000   6.0000000   1.0000000   1.0000000

  Atom        11          12          13          14          15          16          17          18          19
 IAtWgt=          16          16           1           1           1           1          35          35          16
 AtmWgt=  15.9949146  15.9949146   1.0078250   1.0078250   1.0078250   1.0078250  34.9688527  34.9688527  15.9949146
 NucSpn=           0           0           1           1           1           1           3           3           0
 AtZEff=  -0.0000000  -0.0000000  -0.0000000  -0.0000000  -0.0000000  -0.0000000  -0.0000000  -0.0000000  -0.0000000
 NQMom=    0.0000000   0.0000000   0.0000000   0.0000000   0.0000000   0.0000000  -8.1650000  -8.1650000   0.0000000
 NMagM=    0.0000000   0.0000000   2.7928460   2.7928460   2.7928460   2.7928460   0.8218740   0.8218740   0.0000000
 AtZNuc=   8.0000000   8.0000000   1.0000000   1.0000000   1.0000000   1.0000000  17.0000000  17.0000000   8.0000000
 Leave Link  101 at Thu Feb  9 09:21:59 2023, MaxMem=  1073741824 cpu:               1.4 elap:               0.2
 (Enter /public/home/zyli/senxu/soft/g16/l202.exe)
                          Input orientation:                          
 ---------------------------------------------------------------------
 Center     Atomic      Atomic             Coordinates (Angstroms)
 Number     Number       Type             X           Y           Z
 ---------------------------------------------------------------------
      1          6           0       -1.737892   -0.695062    0.982391
      2          6           0       -1.738139    0.694490    0.982429
      3          6           0        0.356620    1.422220    1.530028
      4          6           0        1.180091    0.710657    0.676602
      5          6           0        1.180338   -0.710331    0.676600
      6          6           0        0.357064   -1.422178    1.529983
      7          6           0       -1.719189   -1.141108   -0.434892
      8          6           0       -1.719632    1.140631   -0.434831
      9          1           0        0.286183    2.499337    1.426653
     10          1           0        0.286936   -2.499309    1.426548
     11          8           0       -1.804047    2.240753   -0.904682
     12          8           0       -1.803117   -2.241242   -0.904808
     13          1           0        0.118513   -1.021871    2.506959
     14          1           0        0.118222    1.021801    2.506997
     15          1           0       -2.144346   -1.340806    1.749622
     16          1           0       -2.144786    1.340058    1.749707
     17         17           0        2.001717   -1.586731   -0.591033
     18         17           0        2.001106    1.587334   -0.591073
     19          8           0       -1.583371   -0.000185   -1.230579
 ---------------------------------------------------------------------
                    Distance matrix (angstroms):
                    1          2          3          4          5
     1  C    0.000000
     2  C    1.389552   0.000000
     3  C    3.028163   2.284178   0.000000
     4  C    3.253333   2.934256   1.383027   0.000000
     5  C    2.934247   3.253392   2.440210   1.420988   0.000000
     6  C    2.284162   3.028197   2.844398   2.440209   1.383029
     7  C    1.485933   2.319176   3.839342   3.615284   3.135002
     8  C    2.319185   1.485937   2.872418   3.135053   3.615407
     9  H    3.807681   2.748215   1.084356   2.135655   3.415269
    10  H    2.748183   3.807693   3.923513   3.415264   2.135657
    11  O    3.490620   2.440586   3.356530   3.707659   4.485076
    12  O    2.440583   3.490617   4.900392   4.484874   3.707498
    13  H    2.424325   2.952498   2.642853   2.734741   2.138865
    14  H    2.952491   2.424359   1.082422   2.138860   2.734726
    15  H    1.082051   2.212695   3.733278   4.051142   3.549986
    16  H    2.212702   1.082051   2.512378   3.550001   4.051185
    17  Cl   4.153963   4.654705   4.032249   2.749538   1.746320
    18  Cl   4.654592   4.153918   2.688990   1.746318   2.749531
    19  O    2.324643   2.324636   3.661660   3.432107   3.432161
                    6          7          8          9         10
     6  C    0.000000
     7  C    2.872379   0.000000
     8  C    3.839421   2.281739   0.000000
     9  H    3.923516   4.554087   3.055241   0.000000
    10  H    1.084356   3.055193   4.554142   4.998646   0.000000
    11  O    4.900516   3.415390   1.199231   3.141823   5.681112
    12  O    3.356405   1.199233   3.415394   5.681019   3.141678
    13  H    1.082421   3.470714   4.087704   3.687015   1.838063
    14  H    2.642846   4.087660   3.470761   1.838061   3.687011
    15  H    2.512352   2.234444   3.333129   4.556147   2.712497
    16  H    3.733293   3.333135   2.234443   2.712545   4.556143
    17  Cl   2.688991   3.750747   4.616421   4.869298   2.800697
    18  Cl   4.032235   4.616209   3.750713   2.800701   4.869273
    19  O    3.661701   1.397594   1.397585   4.099235   4.099267
                   11         12         13         14         15
    11  O    0.000000
    12  O    4.481995   0.000000
    13  H    5.097082   4.101181   0.000000
    14  H    4.101282   5.097000   2.043672   0.000000
    15  H    4.470872   2.823689   2.407449   3.357788   0.000000
    16  H    2.823674   4.470894   3.357776   2.407484   2.680864
    17  Cl   5.406649   3.873448   3.669207   4.466518   4.767492
    18  Cl   3.873564   5.406342   4.466532   3.669212   5.589063
    19  O    2.275238   2.275248   4.231955   4.231944   3.315653
                   16         17         18         19
    16  H    0.000000
    17  Cl   5.589154   0.000000
    18  Cl   4.767475   3.174065   0.000000
    19  O    3.315651   3.972279   3.972110   0.000000
 Symmetry turned off by external request.
 Stoichiometry    C8H6Cl2O3
 Framework group  C1[X(C8H6Cl2O3)]
 Deg. of freedom    51
 Full point group                 C1      NOp   1
 Rotational constants (GHZ):           0.7768905           0.6274798           0.4713895
 Leave Link  202 at Thu Feb  9 09:21:59 2023, MaxMem=  1073741824 cpu:               0.0 elap:               0.0
 (Enter /public/home/zyli/senxu/soft/g16/l301.exe)
 Standard basis: CC-pVDZ (5D, 7F)
   220 basis functions,   597 primitive gaussians,   233 cartesian basis functions
    56 alpha electrons       56 beta electrons
       nuclear repulsion energy      1022.9272474085 Hartrees.
 IExCor=    0 DFT=F Ex=HF Corr=None ExCW=0 ScaHFX=  1.000000
 ScaDFX=  1.000000  1.000000  1.000000  1.000000 ScalE2=  1.000000  1.000000
 IRadAn=      5 IRanWt=     -1 IRanGd=            0 ICorTp=0 IEmpDi=  4
 NAtoms=   19 NActive=   19 NUniq=   19 SFac= 1.00D+00 NAtFMM=   60 NAOKFM=F Big=F
 Integral buffers will be    131072 words long.
 Raffenetti 1 integral format.
 Two-electron integral symmetry is turned off.
 Leave Link  301 at Thu Feb  9 09:21:59 2023, MaxMem=  1073741824 cpu:               0.3 elap:               0.1
 (Enter /public/home/zyli/senxu/soft/g16/l302.exe)
 NPDir=0 NMtPBC=     1 NCelOv=     1 NCel=       1 NClECP=     1 NCelD=      1
         NCelK=      1 NCelE2=     1 NClLst=     1 CellRange=     0.0.
 One-electron integrals computed using PRISM.
 NBasis=   220 RedAO= T EigKep=  9.36D-04  NBF=   220
 NBsUse=   220 1.00D-06 EigRej= -1.00D+00 NBFU=   220
 Leave Link  302 at Thu Feb  9 09:21:59 2023, MaxMem=  1073741824 cpu:               1.6 elap:               0.2
 (Enter /public/home/zyli/senxu/soft/g16/l303.exe)
 DipDrv:  MaxL=1.
 Leave Link  303 at Thu Feb  9 09:21:59 2023, MaxMem=  1073741824 cpu:               0.6 elap:               0.1
 (Enter /public/home/zyli/senxu/soft/g16/l401.exe)
 ExpMin= 1.22D-01 ExpMax= 1.28D+05 ExpMxC= 1.24D+03 IAcc=3 IRadAn=         5 AccDes= 0.00D+00
 Harris functional with IExCor=  205 and IRadAn=       5 diagonalized for initial guess.
 HarFok:  IExCor=  205 AccDes= 0.00D+00 IRadAn=         5 IDoV= 1 UseB2=F ITyADJ=14
 ICtDFT=  3500011 ScaDFX=  1.000000  1.000000  1.000000  1.000000
 FoFCou: FMM=F IPFlag=           0 FMFlag=      100000 FMFlg1=           0
         NFxFlg=           0 DoJE=T BraDBF=F KetDBF=T FulRan=T
         wScrn=  0.000000 ICntrl=       500 IOpCl=  0 I1Cent=   200000004 NGrid=           0
         NMat0=    1 NMatS0=      1 NMatT0=    0 NMatD0=    1 NMtDS0=    0 NMtDT0=    0
 Symmetry not used in FoFCou.
 Harris En= -1449.51298685750    
 JPrj=0 DoOrth=F DoCkMO=F.
 Leave Link  401 at Thu Feb  9 09:22:00 2023, MaxMem=  1073741824 cpu:               5.9 elap:               0.7
 (Enter /public/home/zyli/senxu/soft/g16/l502.exe)
 Two-electron integral symmetry not used.
 Closed shell SCF:
 Using DIIS extrapolation, IDIIS=  1040.
 NGot=  1073741824 LenX=  1073629063 LenY=  1073574333
 Requested convergence on RMS density matrix=1.00D-08 within 128 cycles.
 Requested convergence on MAX density matrix=1.00D-06.
 Requested convergence on             energy=1.00D-06.
 No special actions if energy rises.
 Fock matrices will be formed incrementally for  20 cycles.
 Integral accuracy reduced to 1.0D-05 until final iterations.

 Cycle   1  Pass 0  IDiag  1:
 FoFJK:  IHMeth= 1 ICntrl=       0 DoSepK=F KAlg= 0 I1Cent=           0 FoldK=F
 IRaf= 990000000 NMat=       1 IRICut=       1 DoRegI=T DoRafI=F ISym2E= 0 IDoP0=0 IntGTp=1.
 FoFCou: FMM=F IPFlag=           0 FMFlag=      100000 FMFlg1=           0
         NFxFlg=           0 DoJE=F BraDBF=F KetDBF=F FulRan=T
         wScrn=  0.000000 ICntrl=         0 IOpCl=  0 I1Cent=           0 NGrid=           0
         NMat0=    1 NMatS0=      1 NMatT0=    0 NMatD0=    1 NMtDS0=    0 NMtDT0=    0
 Symmetry not used in FoFCou.
 E= -1449.51861056452    
 DIIS: error= 3.19D-02 at cycle   1 NSaved=   1.
 NSaved= 1 IEnMin= 1 EnMin= -1449.51861056452     IErMin= 1 ErrMin= 3.19D-02
 ErrMax= 3.19D-02  0.00D+00 EMaxC= 1.00D-01 BMatC= 6.16D-01 BMatP= 6.16D-01
 IDIUse=3 WtCom= 6.81D-01 WtEn= 3.19D-01
 Coeff-Com:  0.100D+01
 Coeff-En:   0.100D+01
 Coeff:      0.100D+01
 Gap=     0.518 Goal=   None    Shift=    0.000
 GapD=    0.518 DampG=2.000 DampE=0.500 DampFc=1.0000 IDamp=-1.
 RMSDP=4.29D-03 MaxDP=1.09D-01              OVMax= 1.78D-01

 Cycle   2  Pass 0  IDiag  1:
 RMSU=  4.21D-03    CP:  9.69D-01
 E= -1449.84656426945     Delta-E=       -0.327953704928 Rises=F Damp=F
 DIIS: error= 1.83D-02 at cycle   2 NSaved=   2.
 NSaved= 2 IEnMin= 2 EnMin= -1449.84656426945     IErMin= 2 ErrMin= 1.83D-02
 ErrMax= 1.83D-02  0.00D+00 EMaxC= 1.00D-01 BMatC= 1.22D-01 BMatP= 6.16D-01
 IDIUse=3 WtCom= 8.17D-01 WtEn= 1.83D-01
 Coeff-Com:  0.260D+00 0.740D+00
 Coeff-En:   0.000D+00 0.100D+01
 Coeff:      0.212D+00 0.788D+00
 Gap=     0.415 Goal=   None    Shift=    0.000
 RMSDP=1.87D-03 MaxDP=4.52D-02 DE=-3.28D-01 OVMax= 6.50D-02

 Cycle   3  Pass 0  IDiag  1:
 RMSU=  1.61D-03    CP:  9.71D-01  7.76D-01
 E= -1449.94234678828     Delta-E=       -0.095782518832 Rises=F Damp=F
 DIIS: error= 8.68D-03 at cycle   3 NSaved=   3.
 NSaved= 3 IEnMin= 3 EnMin= -1449.94234678828     IErMin= 3 ErrMin= 8.68D-03
 ErrMax= 8.68D-03  0.00D+00 EMaxC= 1.00D-01 BMatC= 1.29D-02 BMatP= 1.22D-01
 IDIUse=3 WtCom= 9.13D-01 WtEn= 8.68D-02
 Coeff-Com: -0.191D-01 0.212D+00 0.807D+00
 Coeff-En:   0.000D+00 0.000D+00 0.100D+01
 Coeff:     -0.175D-01 0.193D+00 0.824D+00
 Gap=     0.401 Goal=   None    Shift=    0.000
 RMSDP=4.58D-04 MaxDP=1.83D-02 DE=-9.58D-02 OVMax= 2.92D-02

 Cycle   4  Pass 0  IDiag  1:
 RMSU=  3.26D-04    CP:  9.69D-01  8.45D-01  9.20D-01
 E= -1449.95354519437     Delta-E=       -0.011198406088 Rises=F Damp=F
 DIIS: error= 3.00D-03 at cycle   4 NSaved=   4.
 NSaved= 4 IEnMin= 4 EnMin= -1449.95354519437     IErMin= 4 ErrMin= 3.00D-03
 ErrMax= 3.00D-03  0.00D+00 EMaxC= 1.00D-01 BMatC= 1.10D-03 BMatP= 1.29D-02
 IDIUse=3 WtCom= 9.70D-01 WtEn= 3.00D-02
 Coeff-Com: -0.154D-01 0.282D-01 0.286D+00 0.701D+00
 Coeff-En:   0.000D+00 0.000D+00 0.000D+00 0.100D+01
 Coeff:     -0.150D-01 0.274D-01 0.277D+00 0.710D+00
 Gap=     0.396 Goal=   None    Shift=    0.000
 RMSDP=1.49D-04 MaxDP=4.08D-03 DE=-1.12D-02 OVMax= 6.73D-03

 Cycle   5  Pass 0  IDiag  1:
 RMSU=  1.30D-04    CP:  9.69D-01  8.48D-01  9.57D-01  8.93D-01
 E= -1449.95460259000     Delta-E=       -0.001057395627 Rises=F Damp=F
 DIIS: error= 9.96D-04 at cycle   5 NSaved=   5.
 NSaved= 5 IEnMin= 5 EnMin= -1449.95460259000     IErMin= 5 ErrMin= 9.96D-04
 ErrMax= 9.96D-04  0.00D+00 EMaxC= 1.00D-01 BMatC= 7.44D-05 BMatP= 1.10D-03
 IDIUse=3 WtCom= 9.90D-01 WtEn= 9.96D-03
 Coeff-Com:  0.900D-03-0.252D-01-0.722D-01 0.675D-01 0.103D+01
 Coeff-En:   0.000D+00 0.000D+00 0.000D+00 0.000D+00 0.100D+01
 Coeff:      0.891D-03-0.250D-01-0.715D-01 0.668D-01 0.103D+01
 Gap=     0.397 Goal=   None    Shift=    0.000
 RMSDP=7.99D-05 MaxDP=2.13D-03 DE=-1.06D-03 OVMax= 5.40D-03

 Cycle   6  Pass 0  IDiag  1:
 RMSU=  4.33D-05    CP:  9.69D-01  8.49D-01  9.85D-01  1.03D+00  1.14D+00
 E= -1449.95478096528     Delta-E=       -0.000178375284 Rises=F Damp=F
 DIIS: error= 2.96D-04 at cycle   6 NSaved=   6.
 NSaved= 6 IEnMin= 6 EnMin= -1449.95478096528     IErMin= 6 ErrMin= 2.96D-04
 ErrMax= 2.96D-04  0.00D+00 EMaxC= 1.00D-01 BMatC= 1.11D-05 BMatP= 7.44D-05
 IDIUse=3 WtCom= 9.97D-01 WtEn= 2.96D-03
 Coeff-Com:  0.196D-02-0.858D-02-0.428D-01-0.815D-01 0.156D+00 0.975D+00
 Coeff-En:   0.000D+00 0.000D+00 0.000D+00 0.000D+00 0.000D+00 0.100D+01
 Coeff:      0.196D-02-0.855D-02-0.427D-01-0.813D-01 0.155D+00 0.975D+00
 Gap=     0.397 Goal=   None    Shift=    0.000
 RMSDP=3.32D-05 MaxDP=9.38D-04 DE=-1.78D-04 OVMax= 2.66D-03

 Cycle   7  Pass 0  IDiag  1:
 RMSU=  1.35D-05    CP:  9.69D-01  8.49D-01  9.89D-01  1.08D+00  1.33D+00
                    CP:  1.19D+00
 E= -1449.95481030494     Delta-E=       -0.000029339656 Rises=F Damp=F
 DIIS: error= 1.09D-04 at cycle   7 NSaved=   7.
 NSaved= 7 IEnMin= 7 EnMin= -1449.95481030494     IErMin= 7 ErrMin= 1.09D-04
 ErrMax= 1.09D-04  0.00D+00 EMaxC= 1.00D-01 BMatC= 1.56D-06 BMatP= 1.11D-05
 IDIUse=3 WtCom= 9.99D-01 WtEn= 1.09D-03
 Coeff-Com: -0.135D-03 0.306D-02 0.118D-01-0.152D-01-0.123D+00-0.524D-01
 Coeff-Com:  0.118D+01
 Coeff-En:   0.000D+00 0.000D+00 0.000D+00 0.000D+00 0.000D+00 0.000D+00
 Coeff-En:   0.100D+01
 Coeff:     -0.135D-03 0.306D-02 0.118D-01-0.152D-01-0.123D+00-0.523D-01
 Coeff:      0.118D+01
 Gap=     0.397 Goal=   None    Shift=    0.000
 RMSDP=1.48D-05 MaxDP=3.95D-04 DE=-2.93D-05 OVMax= 1.35D-03

 Cycle   8  Pass 0  IDiag  1:
 RMSU=  5.35D-06    CP:  9.69D-01  8.48D-01  9.91D-01  1.09D+00  1.39D+00
                    CP:  1.38D+00  1.45D+00
 E= -1449.95481572405     Delta-E=       -0.000005419110 Rises=F Damp=F
 DIIS: error= 3.76D-05 at cycle   8 NSaved=   8.
 NSaved= 8 IEnMin= 8 EnMin= -1449.95481572405     IErMin= 8 ErrMin= 3.76D-05
 ErrMax= 3.76D-05  0.00D+00 EMaxC= 1.00D-01 BMatC= 3.31D-07 BMatP= 1.56D-06
 IDIUse=1 WtCom= 1.00D+00 WtEn= 0.00D+00
 Coeff-Com: -0.314D-03 0.198D-02 0.101D-01 0.837D-02-0.393D-01-0.179D+00
 Coeff-Com:  0.270D+00 0.928D+00
 Coeff:     -0.314D-03 0.198D-02 0.101D-01 0.837D-02-0.393D-01-0.179D+00
 Coeff:      0.270D+00 0.928D+00
 Gap=     0.397 Goal=   None    Shift=    0.000
 RMSDP=5.38D-06 MaxDP=1.70D-04 DE=-5.42D-06 OVMax= 5.64D-04

 Initial convergence to 1.0D-05 achieved.  Increase integral accuracy.
 Cycle   9  Pass 1  IDiag  1:
 E= -1449.95482520505     Delta-E=       -0.000009481001 Rises=F Damp=F
 DIIS: error= 3.42D-05 at cycle   1 NSaved=   1.
 NSaved= 1 IEnMin= 1 EnMin= -1449.95482520505     IErMin= 1 ErrMin= 3.42D-05
 ErrMax= 3.42D-05  0.00D+00 EMaxC= 1.00D-01 BMatC= 1.35D-07 BMatP= 1.35D-07
 IDIUse=1 WtCom= 1.00D+00 WtEn= 0.00D+00
 Coeff-Com:  0.100D+01
 Coeff:      0.100D+01
 Gap=     0.397 Goal=   None    Shift=    0.000
 RMSDP=5.38D-06 MaxDP=1.70D-04 DE=-9.48D-06 OVMax= 2.20D-04

 Cycle  10  Pass 1  IDiag  1:
 RMSU=  4.94D-06    CP:  1.00D+00
 E= -1449.95482540178     Delta-E=       -0.000000196727 Rises=F Damp=F
 DIIS: error= 1.01D-05 at cycle   2 NSaved=   2.
 NSaved= 2 IEnMin= 2 EnMin= -1449.95482540178     IErMin= 2 ErrMin= 1.01D-05
 ErrMax= 1.01D-05  0.00D+00 EMaxC= 1.00D-01 BMatC= 1.81D-08 BMatP= 1.35D-07
 IDIUse=1 WtCom= 1.00D+00 WtEn= 0.00D+00
 Coeff-Com:  0.280D-01 0.972D+00
 Coeff:      0.280D-01 0.972D+00
 Gap=     0.397 Goal=   None    Shift=    0.000
 RMSDP=1.25D-06 MaxDP=2.56D-05 DE=-1.97D-07 OVMax= 1.49D-04

 Cycle  11  Pass 1  IDiag  1:
 RMSU=  1.11D-06    CP:  1.00D+00  1.12D+00
 E= -1449.95482546361     Delta-E=       -0.000000061839 Rises=F Damp=F
 DIIS: error= 6.65D-06 at cycle   3 NSaved=   3.
 NSaved= 3 IEnMin= 3 EnMin= -1449.95482546361     IErMin= 3 ErrMin= 6.65D-06
 ErrMax= 6.65D-06  0.00D+00 EMaxC= 1.00D-01 BMatC= 8.93D-09 BMatP= 1.81D-08
 IDIUse=1 WtCom= 1.00D+00 WtEn= 0.00D+00
 Coeff-Com: -0.978D-01 0.288D+00 0.809D+00
 Coeff:     -0.978D-01 0.288D+00 0.809D+00
 Gap=     0.397 Goal=   None    Shift=    0.000
 RMSDP=8.08D-07 MaxDP=1.50D-05 DE=-6.18D-08 OVMax= 9.33D-05

 Cycle  12  Pass 1  IDiag  1:
 RMSU=  5.94D-07    CP:  1.00D+00  1.19D+00  1.38D+00
 E= -1449.95482549250     Delta-E=       -0.000000028888 Rises=F Damp=F
 DIIS: error= 3.70D-06 at cycle   4 NSaved=   4.
 NSaved= 4 IEnMin= 4 EnMin= -1449.95482549250     IErMin= 4 ErrMin= 3.70D-06
 ErrMax= 3.70D-06  0.00D+00 EMaxC= 1.00D-01 BMatC= 2.42D-09 BMatP= 8.93D-09
 IDIUse=1 WtCom= 1.00D+00 WtEn= 0.00D+00
 Coeff-Com:  0.155D-01-0.543D+00-0.290D+00 0.182D+01
 Coeff:      0.155D-01-0.543D+00-0.290D+00 0.182D+01
 Gap=     0.397 Goal=   None    Shift=    0.000
 RMSDP=1.27D-06 MaxDP=2.77D-05 DE=-2.89D-08 OVMax= 1.43D-04

 Cycle  13  Pass 1  IDiag  1:
 RMSU=  1.60D-07    CP:  1.00D+00  1.28D+00  2.31D+00  1.90D+00
 E= -1449.95482551294     Delta-E=       -0.000000020440 Rises=F Damp=F
 DIIS: error= 8.09D-07 at cycle   5 NSaved=   5.
 NSaved= 5 IEnMin= 5 EnMin= -1449.95482551294     IErMin= 5 ErrMin= 8.09D-07
 ErrMax= 8.09D-07  0.00D+00 EMaxC= 1.00D-01 BMatC= 1.46D-10 BMatP= 2.42D-09
 IDIUse=1 WtCom= 1.00D+00 WtEn= 0.00D+00
 Coeff-Com:  0.102D-01-0.158D+00-0.128D+00 0.469D+00 0.806D+00
 Coeff:      0.102D-01-0.158D+00-0.128D+00 0.469D+00 0.806D+00
 Gap=     0.397 Goal=   None    Shift=    0.000
 RMSDP=1.53D-07 MaxDP=3.51D-06 DE=-2.04D-08 OVMax= 1.73D-05

 Cycle  14  Pass 1  IDiag  1:
 RMSU=  5.68D-08    CP:  1.00D+00  1.29D+00  2.41D+00  2.04D+00  1.14D+00
 E= -1449.95482551350     Delta-E=       -0.000000000560 Rises=F Damp=F
 DIIS: error= 3.44D-07 at cycle   6 NSaved=   6.
 NSaved= 6 IEnMin= 6 EnMin= -1449.95482551350     IErMin= 6 ErrMin= 3.44D-07
 ErrMax= 3.44D-07  0.00D+00 EMaxC= 1.00D-01 BMatC= 2.97D-11 BMatP= 1.46D-10
 IDIUse=1 WtCom= 1.00D+00 WtEn= 0.00D+00
 Coeff-Com: -0.464D-02 0.131D+00 0.764D-01-0.438D+00-0.455D-01 0.128D+01
 Coeff:     -0.464D-02 0.131D+00 0.764D-01-0.438D+00-0.455D-01 0.128D+01
 Gap=     0.397 Goal=   None    Shift=    0.000
 RMSDP=8.69D-08 MaxDP=1.92D-06 DE=-5.60D-10 OVMax= 9.51D-06

 Cycle  15  Pass 1  IDiag  1:
 RMSU=  2.45D-08    CP:  1.00D+00  1.29D+00  2.46D+00  2.09D+00  1.45D+00
                    CP:  1.47D+00
 E= -1449.95482551364     Delta-E=       -0.000000000143 Rises=F Damp=F
 DIIS: error= 1.13D-07 at cycle   7 NSaved=   7.
 NSaved= 7 IEnMin= 7 EnMin= -1449.95482551364     IErMin= 7 ErrMin= 1.13D-07
 ErrMax= 1.13D-07  0.00D+00 EMaxC= 1.00D-01 BMatC= 3.50D-12 BMatP= 2.97D-11
 IDIUse=1 WtCom= 1.00D+00 WtEn= 0.00D+00
 Coeff-Com: -0.228D-02 0.431D-01 0.320D-01-0.137D+00-0.121D+00 0.135D+00
 Coeff-Com:  0.105D+01
 Coeff:     -0.228D-02 0.431D-01 0.320D-01-0.137D+00-0.121D+00 0.135D+00
 Coeff:      0.105D+01
 Gap=     0.397 Goal=   None    Shift=    0.000
 RMSDP=2.77D-08 MaxDP=5.46D-07 DE=-1.43D-10 OVMax= 2.68D-06

 Cycle  16  Pass 1  IDiag  1:
 RMSU=  9.47D-09    CP:  1.00D+00  1.30D+00  2.47D+00  2.10D+00  1.53D+00
                    CP:  1.68D+00  1.33D+00
 E= -1449.95482551366     Delta-E=       -0.000000000016 Rises=F Damp=F
 DIIS: error= 6.17D-08 at cycle   8 NSaved=   8.
 NSaved= 8 IEnMin= 8 EnMin= -1449.95482551366     IErMin= 8 ErrMin= 6.17D-08
 ErrMax= 6.17D-08  0.00D+00 EMaxC= 1.00D-01 BMatC= 4.33D-13 BMatP= 3.50D-12
 IDIUse=1 WtCom= 1.00D+00 WtEn= 0.00D+00
 Coeff-Com:  0.580D-03-0.169D-01-0.881D-02 0.549D-01 0.705D-02-0.173D+00
 Coeff-Com:  0.556D-01 0.108D+01
 Coeff:      0.580D-03-0.169D-01-0.881D-02 0.549D-01 0.705D-02-0.173D+00
 Coeff:      0.556D-01 0.108D+01
 Gap=     0.397 Goal=   None    Shift=    0.000
 RMSDP=8.21D-09 MaxDP=1.93D-07 DE=-1.59D-11 OVMax= 6.43D-07

 SCF Done:  E(RHF) =  -1449.95482551     A.U. after   16 cycles
            NFock= 16  Conv=0.82D-08     -V/T= 2.0004
 KE= 1.449355441637D+03 PE=-5.478790165090D+03 EE= 1.556552650531D+03
 Leave Link  502 at Thu Feb  9 09:22:27 2023, MaxMem=  1073741824 cpu:             213.6 elap:              26.7
 (Enter /public/home/zyli/senxu/soft/g16/l601.exe)
 Copying SCF densities to generalized density rwf, IOpCl= 0 IROHF=0.

 **********************************************************************

            Population analysis using the SCF Density.

 **********************************************************************

 Alpha  occ. eigenvalues -- -104.85449-104.85449 -20.63590 -20.57526 -20.57526
 Alpha  occ. eigenvalues --  -11.41609 -11.41607 -11.34918 -11.34817 -11.30809
 Alpha  occ. eigenvalues --  -11.30684 -11.30666 -11.30665 -10.58121 -10.58118
 Alpha  occ. eigenvalues --   -8.04881  -8.04881  -8.04519  -8.04519  -8.04510
 Alpha  occ. eigenvalues --   -8.04510  -1.50185  -1.42557  -1.37990  -1.22652
 Alpha  occ. eigenvalues --   -1.15297  -1.13762  -1.07210  -1.01819  -0.94898
 Alpha  occ. eigenvalues --   -0.90177  -0.84860  -0.81114  -0.74585  -0.71714
 Alpha  occ. eigenvalues --   -0.70772  -0.68681  -0.67543  -0.67355  -0.64478
 Alpha  occ. eigenvalues --   -0.63175  -0.61957  -0.59506  -0.58385  -0.56938
 Alpha  occ. eigenvalues --   -0.56253  -0.56233  -0.49771  -0.49366  -0.48853
 Alpha  occ. eigenvalues --   -0.48632  -0.46789  -0.45972  -0.45706  -0.36297
 Alpha  occ. eigenvalues --   -0.35618
 Alpha virt. eigenvalues --    0.04081   0.04931   0.14337   0.15535   0.16253
 Alpha virt. eigenvalues --    0.19297   0.19401   0.21876   0.22301   0.24193
 Alpha virt. eigenvalues --    0.25107   0.27607   0.31975   0.33276   0.34949
 Alpha virt. eigenvalues --    0.36532   0.38243   0.40222   0.44519   0.46060
 Alpha virt. eigenvalues --    0.48045   0.53469   0.54492   0.55936   0.59187
 Alpha virt. eigenvalues --    0.61397   0.61922   0.62375   0.64711   0.65519
 Alpha virt. eigenvalues --    0.65983   0.66408   0.66863   0.69525   0.69868
 Alpha virt. eigenvalues --    0.70810   0.72109   0.73213   0.75816   0.76139
 Alpha virt. eigenvalues --    0.78031   0.78603   0.79203   0.80645   0.81659
 Alpha virt. eigenvalues --    0.83354   0.83625   0.83674   0.86264   0.87439
 Alpha virt. eigenvalues --    0.89089   0.90145   0.91009   0.91230   0.91881
 Alpha virt. eigenvalues --    0.92974   0.94938   0.95561   0.96261   0.97594
 Alpha virt. eigenvalues --    0.98134   0.99748   1.00554   1.06385   1.06731
 Alpha virt. eigenvalues --    1.07832   1.09281   1.10967   1.11759   1.16579
 Alpha virt. eigenvalues --    1.17006   1.19659   1.20310   1.21713   1.23846
 Alpha virt. eigenvalues --    1.25093   1.25845   1.27153   1.30489   1.33002
 Alpha virt. eigenvalues --    1.34587   1.35509   1.38659   1.39432   1.39599
 Alpha virt. eigenvalues --    1.40665   1.41127   1.45608   1.46652   1.47055
 Alpha virt. eigenvalues --    1.49937   1.51045   1.51987   1.59117   1.60866
 Alpha virt. eigenvalues --    1.62539   1.68433   1.69306   1.71756   1.72265
 Alpha virt. eigenvalues --    1.75201   1.77691   1.78589   1.80230   1.80594
 Alpha virt. eigenvalues --    1.83753   1.86659   1.86749   1.87887   1.91229
 Alpha virt. eigenvalues --    1.91421   1.93959   1.95415   1.97063   1.97159
 Alpha virt. eigenvalues --    2.00662   2.02130   2.06784   2.07230   2.10100
 Alpha virt. eigenvalues --    2.12109   2.14443   2.16704   2.20193   2.21020
 Alpha virt. eigenvalues --    2.24204   2.26412   2.28904   2.28949   2.34958
 Alpha virt. eigenvalues --    2.36011   2.39301   2.40986   2.44450   2.44761
 Alpha virt. eigenvalues --    2.45531   2.50263   2.54722   2.60740   2.62375
 Alpha virt. eigenvalues --    2.67620   2.71789   2.75707   2.80808   2.85245
 Alpha virt. eigenvalues --    2.94172   2.95011   2.95286   2.97328   3.01393
 Alpha virt. eigenvalues --    3.05671   3.13226   3.17247   3.26078   3.37980
 Alpha virt. eigenvalues --    3.41126   3.50023   3.51538   3.58711   3.59969
 Alpha virt. eigenvalues --    3.80819   3.89000   3.90930   3.92953
          Condensed to atoms (all electrons):
               1          2          3          4          5          6
     1  C    5.194383   0.418258  -0.040066  -0.031459  -0.008835   0.100920
     2  C    0.418258   5.194373   0.100917  -0.008838  -0.031454  -0.040064
     3  C   -0.040066   0.100917   4.656857   0.602857  -0.067745  -0.019284
     4  C   -0.031459  -0.008838   0.602857   5.120335   0.337371  -0.067744
     5  C   -0.008835  -0.031454  -0.067745   0.337371   5.120340   0.602854
     6  C    0.100920  -0.040064  -0.019284  -0.067744   0.602854   4.656851
     7  C    0.348351  -0.053778   0.002436   0.002065  -0.019840  -0.020068
     8  C   -0.053775   0.348353  -0.020066  -0.019838   0.002066   0.002436
     9  H    0.001586  -0.006524   0.403529  -0.014929   0.006569   0.000288
    10  H   -0.006525   0.001586   0.000288   0.006569  -0.014929   0.403528
    11  O    0.003751  -0.065560  -0.001432  -0.001401   0.000156   0.000019
    12  O   -0.065561   0.003751   0.000019   0.000156  -0.001402  -0.001432
    13  H   -0.012832  -0.009758   0.003882  -0.013020  -0.011374   0.406084
    14  H   -0.009758  -0.012829   0.406084  -0.011374  -0.013021   0.003882
    15  H    0.414434  -0.020542   0.000038   0.000444   0.000234  -0.003781
    16  H   -0.020543   0.414434  -0.003780   0.000234   0.000444   0.000038
    17  Cl   0.000954   0.000243   0.002908  -0.093530   0.326224  -0.085446
    18  Cl   0.000243   0.000954  -0.085447   0.326225  -0.093531   0.002908
    19  O   -0.083532  -0.083530  -0.001220   0.003344   0.003343  -0.001220
               7          8          9         10         11         12
     1  C    0.348351  -0.053775   0.001586  -0.006525   0.003751  -0.065561
     2  C   -0.053778   0.348353  -0.006524   0.001586  -0.065560   0.003751
     3  C    0.002436  -0.020066   0.403529   0.000288  -0.001432   0.000019
     4  C    0.002065  -0.019838  -0.014929   0.006569  -0.001401   0.000156
     5  C   -0.019840   0.002066   0.006569  -0.014929   0.000156  -0.001402
     6  C   -0.020068   0.002436   0.000288   0.403528   0.000019  -0.001432
     7  C    4.222038  -0.076708  -0.000062  -0.000301  -0.001159   0.767061
     8  C   -0.076708   4.222032  -0.000301  -0.000062   0.767065  -0.001159
     9  H   -0.000062  -0.000301   0.531951  -0.000012   0.002719   0.000000
    10  H   -0.000301  -0.000062  -0.000012   0.531950   0.000000   0.002720
    11  O   -0.001159   0.767065   0.002719   0.000000   7.654767  -0.000007
    12  O    0.767061  -0.001159   0.000000   0.002720  -0.000007   7.654774
    13  H    0.001242   0.000010   0.000353  -0.025503   0.000001   0.000097
    14  H    0.000010   0.001242  -0.025503   0.000353   0.000097   0.000001
    15  H   -0.015488   0.003285  -0.000045  -0.000142  -0.000032   0.001335
    16  H    0.003285  -0.015489  -0.000142  -0.000045   0.001335  -0.000032
    17  Cl   0.000478   0.000212  -0.000046  -0.003189  -0.000002   0.000078
    18  Cl   0.000213   0.000479  -0.003189  -0.000046   0.000078  -0.000002
    19  O    0.342887   0.342885   0.000077   0.000077  -0.046717  -0.046715
              13         14         15         16         17         18
     1  C   -0.012832  -0.009758   0.414434  -0.020543   0.000954   0.000243
     2  C   -0.009758  -0.012829  -0.020542   0.414434   0.000243   0.000954
     3  C    0.003882   0.406084   0.000038  -0.003780   0.002908  -0.085447
     4  C   -0.013020  -0.011374   0.000444   0.000234  -0.093530   0.326225
     5  C   -0.011374  -0.013021   0.000234   0.000444   0.326224  -0.093531
     6  C    0.406084   0.003882  -0.003781   0.000038  -0.085446   0.002908
     7  C    0.001242   0.000010  -0.015488   0.003285   0.000478   0.000213
     8  C    0.000010   0.001242   0.003285  -0.015489   0.000212   0.000479
     9  H    0.000353  -0.025503  -0.000045  -0.000142  -0.000046  -0.003189
    10  H   -0.025503   0.000353  -0.000142  -0.000045  -0.003189  -0.000046
    11  O    0.000001   0.000097  -0.000032   0.001335  -0.000002   0.000078
    12  O    0.000097   0.000001   0.001335  -0.000032   0.000078  -0.000002
    13  H    0.578431  -0.001245  -0.005046   0.000193   0.003505  -0.000033
    14  H   -0.001245   0.578431   0.000193  -0.005045  -0.000033   0.003505
    15  H   -0.005046   0.000193   0.545486  -0.003382  -0.000059  -0.000001
    16  H    0.000193  -0.005045  -0.003382   0.545489  -0.000001  -0.000059
    17  Cl   0.003505  -0.000033  -0.000059  -0.000001  16.886019  -0.011085
    18  Cl  -0.000033   0.003505  -0.000001  -0.000059  -0.011085  16.886020
    19  O   -0.000061  -0.000061   0.002333   0.002333  -0.000291  -0.000292
              19
     1  C   -0.083532
     2  C   -0.083530
     3  C   -0.001220
     4  C    0.003344
     5  C    0.003343
     6  C   -0.001220
     7  C    0.342887
     8  C    0.342885
     9  H    0.000077
    10  H    0.000077
    11  O   -0.046717
    12  O   -0.046715
    13  H   -0.000061
    14  H   -0.000061
    15  H    0.002333
    16  H    0.002333
    17  Cl  -0.000291
    18  Cl  -0.000292
    19  O    7.962303
 Mulliken charges:
               1
     1  C   -0.149994
     2  C   -0.149990
     3  C    0.059223
     4  C   -0.137467
     5  C   -0.137471
     6  C    0.059229
     7  C    0.497338
     8  C    0.497333
     9  H    0.103682
    10  H    0.103683
    11  O   -0.313678
    12  O   -0.313681
    13  H    0.085074
    14  H    0.085073
    15  H    0.080735
    16  H    0.080732
    17  Cl  -0.026939
    18  Cl  -0.026940
    19  O   -0.395942
 Sum of Mulliken charges =  -0.00000
 Mulliken charges with hydrogens summed into heavy atoms:
               1
     1  C   -0.069259
     2  C   -0.069258
     3  C    0.247978
     4  C   -0.137467
     5  C   -0.137471
     6  C    0.247986
     7  C    0.497338
     8  C    0.497333
    11  O   -0.313678
    12  O   -0.313681
    17  Cl  -0.026939
    18  Cl  -0.026940
    19  O   -0.395942
 Electronic spatial extent (au):  <R**2>=           2526.8113
 Charge=             -0.0000 electrons
 Dipole moment (field-independent basis, Debye):
    X=             -0.1231    Y=             -0.0002    Z=              7.2030  Tot=              7.2040
 Quadrupole moment (field-independent basis, Debye-Ang):
   XX=            -91.9681   YY=            -96.4276   ZZ=            -84.1109
   XY=              0.0019   XZ=             -9.2071   YZ=             -0.0017
 Traceless Quadrupole moment (field-independent basis, Debye-Ang):
   XX=             -1.1325   YY=             -5.5921   ZZ=              6.7246
   XY=              0.0019   XZ=             -9.2071   YZ=             -0.0017
 Octapole moment (field-independent basis, Debye-Ang**2):
  XXX=            -10.7507  YYY=              0.0083  ZZZ=              4.7643  XYY=             22.1635
  XXY=             -0.0121  XXZ=              3.9404  XZZ=              1.6361  YZZ=              0.0014
  YYZ=             19.8072  XYZ=             -0.0026
 Hexadecapole moment (field-independent basis, Debye-Ang**3):
 XXXX=          -1497.0309 YYYY=          -1186.5856 ZZZZ=           -543.5519 XXXY=              0.0238
 XXXZ=            -33.2302 YYYX=             -0.0056 YYYZ=             -0.0223 ZZZX=            -29.6817
 ZZZY=             -0.0053 XXYY=           -480.0790 XXZZ=           -343.5027 YYZZ=           -275.9455
 XXYZ=              0.0122 YYXZ=            -45.0680 ZZXY=             -0.0026
 N-N= 1.022927247408D+03 E-N=-5.478790165264D+03  KE= 1.449355441637D+03
 No NMR shielding tensors so no spin-rotation constants.
 Leave Link  601 at Thu Feb  9 09:22:27 2023, MaxMem=  1073741824 cpu:               1.2 elap:               0.2
 (Enter /public/home/zyli/senxu/soft/g16/l9999.exe)
 Unable to Open any file for archive entry.
 1\1\GINC-NODE100\SP\RHF\CC-pVDZ\C8H6Cl2O3\XZZENG\09-Feb-2023\0\\#p RHF
 /cc-pvdz nosymm int=nobasistransform\\title\\0,1\C,0,-1.737892,-0.6950
 62,0.982391\C,0,-1.738139,0.69449,0.982429\C,0,0.35662,1.42222,1.53002
 8\C,0,1.180091,0.710657,0.676602\C,0,1.180338,-0.710331,0.6766\C,0,0.3
 57064,-1.422178,1.529983\C,0,-1.719189,-1.141108,-0.434892\C,0,-1.7196
 32,1.140631,-0.434831\H,0,0.286183,2.499337,1.426653\H,0,0.286936,-2.4
 99309,1.426548\O,0,-1.804047,2.240753,-0.904682\O,0,-1.803117,-2.24124
 2,-0.904808\H,0,0.118513,-1.021871,2.506959\H,0,0.118222,1.021801,2.50
 6997\H,0,-2.144346,-1.340806,1.749622\H,0,-2.144786,1.340058,1.749707\
 Cl,0,2.001717,-1.586731,-0.591033\Cl,0,2.001106,1.587334,-0.591073\O,0
 ,-1.583371,-0.000185,-1.230579\\Version=ES64L-G16RevC.01\HF=-1449.9548
 255\RMSD=8.207e-09\Dipole=-0.0484372,-0.0000969,2.8338697\Quadrupole=-
 0.8420225,-4.1575727,4.9995952,0.001412,-6.84524,-0.0012807\PG=C01 [X(
 C8H6Cl2O3)]\\@
 The archive entry for this job was punched.


 MOST BUREAUCRACIES FUNCTION LIKE A SEPTIC TANK.
 THE LARGE CHUNKS RISE TO THE TOP.
 Job cpu time:       0 days  0 hours  3 minutes 45.6 seconds.
 Elapsed time:       0 days  0 hours  0 minutes 28.3 seconds.
 File lengths (MBytes):  RWF=     32 Int=      0 D2E=      0 Chk=      5 Scr=      1
 Normal termination of Gaussian 16 at Thu Feb  9 09:22:27 2023.
