Generated by MOKIT
SP        RHF                                                         MYBAS
Number of atoms                            I                2
Charge                                     I                0
Multiplicity                               I                1
Number of electrons                        I               14
Number of alpha electrons                  I                7
Number of beta electrons                   I                7
Number of basis functions                  I               60
Number of independent functions            I               60
Atomic numbers                             I   N=           2
           7           7
Nuclear charges                            R   N=           2
  7.00000000E+00  7.00000000E+00
Current cartesian coordinates              R   N=           6
  0.00000000E+00  0.00000000E+00  0.00000000E+00  0.00000000E+00  0.00000000E+00
  2.26767135E+00
Int Atom Types                             I   N=           2
           0           0
Number of contracted shells                I               20
Number of primitive shells                 I               52
Highest angular momentum                   I                3
Largest degree of contraction              I                8
Shell types                                I   N=          20
           0           0           0           0           1           1
           1          -2          -2          -3           0           0
           0           0           1           1           1          -2
          -2          -3
Number of primitives per shell             I   N=          20
           8           8           1           1           3           1
           1           1           1           1           8           8
           1           1           3           1           1           1
           1           1
Shell to atom map                          I   N=          20
           1           1           1           1           1           1
           1           1           1           1           2           2
           2           2           2           2           2           2
           2           2
Primitive exponents                        R   N=          52
  1.14200000E+04  1.71200000E+03  3.89300000E+02  1.10000000E+02  3.55700000E+01
  1.25400000E+01  4.64400000E+00  5.11800000E-01  1.14200000E+04  1.71200000E+03
  3.89300000E+02  1.10000000E+02  3.55700000E+01  1.25400000E+01  4.64400000E+00
  5.11800000E-01  1.29300000E+00  1.78700000E-01  2.66300000E+01  5.94800000E+00
  1.74200000E+00  5.55000000E-01  1.72500000E-01  1.65400000E+00  4.69000000E-01
  1.09300000E+00  1.14200000E+04  1.71200000E+03  3.89300000E+02  1.10000000E+02
  3.55700000E+01  1.25400000E+01  4.64400000E+00  5.11800000E-01  1.14200000E+04
  1.71200000E+03  3.89300000E+02  1.10000000E+02  3.55700000E+01  1.25400000E+01
  4.64400000E+00  5.11800000E-01  1.29300000E+00  1.78700000E-01  2.66300000E+01
  5.94800000E+00  1.74200000E+00  5.55000000E-01  1.72500000E-01  1.65400000E+00
  4.69000000E-01  1.09300000E+00
Contraction coefficients                   R   N=          52
  5.34980914E-04  4.13766310E-03  2.12509149E-02  8.25762988E-02  2.38413273E-01
  4.43431666E-01  3.55431909E-01 -8.70290176E-03 -1.98776985E-04 -1.54700349E-03
 -7.99256330E-03 -3.20255651E-02 -9.91102048E-02 -2.28292775E-01 -2.98182763E-01
  1.03700052E+00  1.00000000E+00  1.00000000E+00  3.98072123E-02  2.49002660E-01
  8.10479727E-01  1.00000000E+00  1.00000000E+00  1.00000000E+00  1.00000000E+00
  1.00000000E+00  5.34980914E-04  4.13766310E-03  2.12509149E-02  8.25762988E-02
  2.38413273E-01  4.43431666E-01  3.55431909E-01 -8.70290176E-03 -1.98776985E-04
 -1.54700349E-03 -7.99256330E-03 -3.20255651E-02 -9.91102048E-02 -2.28292775E-01
 -2.98182763E-01  1.03700052E+00  1.00000000E+00  1.00000000E+00  3.98072123E-02
  2.49002660E-01  8.10479727E-01  1.00000000E+00  1.00000000E+00  1.00000000E+00
  1.00000000E+00  1.00000000E+00
Coordinates of each shell                  R   N=          60
  0.00000000E+00  0.00000000E+00  0.00000000E+00  0.00000000E+00  0.00000000E+00
  0.00000000E+00  0.00000000E+00  0.00000000E+00  0.00000000E+00  0.00000000E+00
  0.00000000E+00  0.00000000E+00  0.00000000E+00  0.00000000E+00  0.00000000E+00
  0.00000000E+00  0.00000000E+00  0.00000000E+00  0.00000000E+00  0.00000000E+00
  0.00000000E+00  0.00000000E+00  0.00000000E+00  0.00000000E+00  0.00000000E+00
  0.00000000E+00  0.00000000E+00  0.00000000E+00  0.00000000E+00  0.00000000E+00
  0.00000000E+00  0.00000000E+00  2.26767135E+00  0.00000000E+00  0.00000000E+00
  2.26767135E+00  0.00000000E+00  0.00000000E+00  2.26767135E+00  0.00000000E+00
  0.00000000E+00  2.26767135E+00  0.00000000E+00  0.00000000E+00  2.26767135E+00
  0.00000000E+00  0.00000000E+00  2.26767135E+00  0.00000000E+00  0.00000000E+00
  2.26767135E+00  0.00000000E+00  0.00000000E+00  2.26767135E+00  0.00000000E+00
  0.00000000E+00  2.26767135E+00  0.00000000E+00  0.00000000E+00  2.26767135E+00
Num ILSW                                   I              100
ILSW                                       I   N=         100
           0           0           0           0           2           0
           0           0           0           0           0          -1
           5           0           0           0           0           0
           0           0           0           0           0           0
           1           1           0           0           0           0
           0           0      100000           0          -1           0
           0           0           0           0           0           0
           0           0           0           1           0           0
           0 -2000000000           1           0           0           0
           0           0           4          52           0           0
           0           0           0           0           0           0
           0           0           0           2           0           1
           0           0           0           0           0           0
           0           0           0           0           0           0
           0           0           0           0           0           0
           0           0           0           0           0           0
           0           0           0           0
Virial Ratio                               R      0.000000000000000E+00
Total Energy                               R      0.000000000000000E+00
Alpha Orbital Energies                     R   N=          60
 -1.57157203E+01 -1.57136439E+01 -1.39752396E+00 -8.09504020E-01 -6.21807455E-01
 -5.71901558E-01 -5.71901558E-01  1.14230519E-01  1.14230519E-01  4.10956512E-01
  5.75847210E-01  5.77869056E-01  5.77869056E-01  6.65735653E-01  7.16703808E-01
  7.16703808E-01  8.24065772E-01  1.02960092E+00  1.05553471E+00  1.05553471E+00
  1.27701469E+00  1.27701469E+00  1.47452448E+00  1.47452448E+00  1.91806611E+00
  1.91806611E+00  1.92790864E+00  2.05679911E+00  3.15898575E+00  3.15898575E+00
  3.26843914E+00  3.42196771E+00  3.42196771E+00  3.80585082E+00  3.80585082E+00
  3.86304167E+00  3.91252429E+00  3.91252429E+00  4.00866812E+00  4.00866812E+00
  4.25625247E+00  4.37181258E+00  4.37181258E+00  4.75568514E+00  4.75568514E+00
  4.78353685E+00  4.86213429E+00  4.86213429E+00  4.97050198E+00  4.97050198E+00
  5.11330054E+00  5.11330054E+00  5.27604677E+00  5.27604677E+00  5.73058124E+00
  5.85838637E+00  6.39663210E+00  6.42944294E+00  6.42944294E+00  1.34393184E+01
Alpha MO coefficients                      R   N=        3600
  6.91492933E-01  7.27093921E-04  2.92831460E-02  1.30394591E-03 -2.94790015E-18
 -3.85822462E-18  1.64807275E-03  5.10390714E-18  7.65222439E-18 -2.62430608E-04
 -1.40476489E-18 -8.20003425E-19  1.41518666E-04  3.82582891E-04 -1.91201829E-19
  1.36667242E-18  1.13277670E-18  1.90277630E-20 -2.19897626E-04 -5.57372469E-19
  2.30546046E-18  1.45001304E-19 -2.40497881E-19 -2.39019842E-04 -5.58173383E-20
  4.25353770E-19  2.19912937E-19  8.40398952E-21  3.20580542E-20 -2.06859651E-19
  6.91492933E-01  7.27093921E-04  2.92831460E-02  1.30394591E-03 -3.10608790E-19
  1.56075546E-17 -1.64807275E-03  6.92015922E-19 -1.01185899E-17  2.62430608E-04
  2.59723004E-19  3.44249055E-18 -1.41518666E-04  3.82582891E-04  4.19648504E-19
 -1.76413623E-18  2.90292419E-19 -2.19893910E-19 -2.19897626E-04 -4.31781761E-19
  1.85321416E-18 -3.39026295E-19  1.11909697E-19  2.39019842E-04  1.65239648E-20
 -6.67040742E-19 -1.44082953E-19  9.85775286E-20  2.10653310E-20 -4.76082059E-20
  6.90676199E-01 -1.34613300E-03  2.92101628E-02  2.67286971E-03  3.09456086E-17
  2.91241164E-18  1.24193549E-03 -5.90074566E-18 -6.12064289E-18 -1.82548747E-03
  2.17745945E-18 -1.27821310E-19  6.45967173E-04  2.75997715E-04 -5.21607235E-19
  2.53087734E-18  9.69141716E-19  6.29766321E-20 -4.14670951E-04  3.27438363E-19
 -2.45444244E-18  1.29997439E-19 -1.51434903E-19  1.64700958E-04  3.13761692E-20
 -8.52091984E-19  1.78031783E-19  5.93953714E-20  1.30936280E-20 -1.36892162E-19
 -6.90676199E-01  1.34613300E-03 -2.92101628E-02 -2.67286971E-03  5.26775467E-20
 -1.50452337E-17  1.24193549E-03 -4.96162951E-19  1.08378449E-17 -1.82548747E-03
 -4.64530193E-19 -2.56637812E-18  6.45967173E-04 -2.75997715E-04 -3.55309037E-19
  1.35610169E-18 -1.33549889E-19  1.78761314E-19  4.14670951E-04  1.09512232E-19
 -2.16492397E-18  2.80740967E-19 -4.61331171E-20  1.64700958E-04  1.53028483E-19
  7.18708653E-19  5.44042731E-20 -5.78051525E-20 -7.26991740E-21  2.83248893E-20
 -1.46829860E-02  3.60874811E-01  9.17037090E-02  1.19098793E-01 -7.95605840E-17
  5.38295410E-17  1.05867964E-01 -1.47128728E-16  6.68570452E-17  1.20791400E-01
  5.89603659E-17  6.92318339E-18  1.94297301E-02  1.63487857E-02 -1.91575817E-18
  2.73020427E-18  8.65521150E-18 -5.79718718E-19  1.89980015E-02  1.49249246E-18
 -3.51090854E-17  1.23413270E-18 -3.45800789E-18  6.78160834E-03  4.57965864E-19
 -1.21003404E-17  2.23143707E-18  1.14449769E-18  8.66886399E-19 -3.67927897E-18
 -1.46829860E-02  3.60874811E-01  9.17037090E-02  1.19098793E-01 -3.40028368E-17
 -6.35616540E-17 -1.05867964E-01 -4.34460958E-17 -5.10944192E-17 -1.20791400E-01
 -3.96666307E-17  2.80967799E-17 -1.94297301E-02  1.63487857E-02  2.93079876E-18
 -1.44498777E-17  3.80677240E-18 -1.74716409E-18  1.89980015E-02  1.38801905E-17
 -9.13508140E-18 -1.33118462E-17  2.21935578E-18 -6.78160834E-03 -2.10737915E-18
  3.75156974E-19 -2.74327630E-18  9.41574348E-19  5.66402952E-19 -9.34552819E-19
 -5.16812893E-03 -3.93788816E-01 -1.06001694E-01 -3.06138522E-01 -4.63308355E-17
  1.74925316E-16  1.08396413E-01 -1.82979889E-16  1.81783776E-16  1.33554405E-01
  3.44762578E-17  2.08325479E-16  6.42779115E-02  3.38972532E-03 -6.79413250E-18
 -7.48759869E-18 -2.98025836E-18  5.27345469E-18  6.31480025E-03  1.67768592E-17
 -7.08859003E-17 -1.09412275E-17 -5.65305014E-19 -4.89611077E-04  6.86621379E-19
 -1.78158091E-17 -3.51079947E-18  7.38488122E-19  3.98845829E-21  1.05947723E-18
  5.16812893E-03  3.93788816E-01  1.06001694E-01  3.06138522E-01 -8.72907910E-17
 -1.24673628E-16  1.08396413E-01 -1.30274082E-16 -1.07391464E-16  1.33554405E-01
 -1.21959263E-16 -1.09865125E-16  6.42779115E-02 -3.38972532E-03  8.06863148E-18
 -7.09980487E-18 -1.68859983E-20  4.55582668E-19 -6.31480025E-03  3.38693392E-17
 -2.18783333E-17 -6.46080291E-18 -4.29454526E-19 -4.89611077E-04 -1.41511162E-17
  1.83595980E-17  2.37884114E-18 -3.14804203E-19 -3.99652868E-20  5.71179412E-19
 -7.12653843E-04  1.31929674E-01  3.97351751E-02  2.49124800E-01 -2.18228726E-17
  9.77851200E-17 -2.52656575E-01  3.84554181E-16 -3.73290027E-16 -3.10011051E-01
  1.96337483E-17 -4.95603843E-18 -1.58174255E-01 -1.60176261E-02 -2.77398104E-17
 -7.57321708E-18 -1.44535407E-18 -4.73132319E-17 -1.88290917E-02  7.99090863E-18
 -1.15548620E-17 -1.62260451E-17 -2.66218174E-17 -5.17545071E-03  3.68271755E-19
 -4.02187844E-17  5.28933760E-18 -2.33869129E-18  1.51172479E-19 -1.09641447E-18
 -7.12653843E-04  1.31929674E-01  3.97351751E-02  2.49124800E-01 -9.08314688E-17
  1.93441587E-17  2.52656575E-01 -1.55964217E-16  4.68712140E-17  3.10011051E-01
 -1.90449385E-16  2.26938543E-16  1.58174255E-01 -1.60176261E-02  3.01374587E-17
 -8.57465807E-18 -1.90434696E-18  1.74422954E-18 -1.88290917E-02 -2.15402554E-18
 -3.50088952E-17  1.34969343E-18 -1.65017999E-17  5.17545071E-03 -4.51217415E-17
  5.97728853E-17  2.28777455E-18  1.14874370E-18  5.04015634E-20  5.33010902E-19
 -4.24508448E-16 -6.23055615E-16  4.09200121E-16  2.00350741E-15  2.21378950E-01
  5.05927695E-02 -2.05115183E-16  2.97067694E-01  6.78902732E-02 -6.70841584E-17
  1.92665329E-01  4.40307110E-02  8.40796610E-16  1.68276601E-17  1.54117223E-02
  3.52211315E-03 -5.57160955E-17 -1.41084528E-16  4.72616619E-17  3.74002725E-02
  8.54725964E-03  7.89911044E-17  9.22091591E-17 -7.76388566E-17  7.09271611E-03
  1.62093167E-03  9.78235481E-17  1.70638922E-17 -4.95781866E-17 -2.50686446E-17
  4.37395904E-16  7.52927752E-16 -2.35264463E-16 -1.79012077E-15  2.21378950E-01
  5.05927695E-02 -1.75301755E-17  2.97067694E-01  6.78902732E-02 -2.59481761E-16
  1.92665329E-01  4.40307110E-02  1.24967652E-15  7.53990816E-17 -1.54117223E-02
 -3.52211315E-03 -3.48779673E-17  9.27316847E-17 -2.96234229E-16 -3.74002725E-02
 -8.54725964E-03  2.04111314E-16 -1.47513325E-16  8.41695017E-17  7.09271611E-03
  1.62093167E-03  4.89714823E-17 -2.94114066E-17 -6.53628522E-18  7.37971157E-17
  1.09379442E-16  6.48175931E-17 -1.71913587E-16 -7.77915788E-15 -5.05927695E-02
  2.21378950E-01  2.05347205E-15 -6.78902732E-02  2.97067694E-01 -2.93051858E-15
 -4.40307110E-02  1.92665329E-01 -2.70746897E-15 -3.95411789E-16 -3.52211315E-03
  1.54117223E-02 -6.58174778E-17  1.42232711E-16 -1.19445474E-15 -8.54725964E-03
  3.74002725E-02 -2.22818193E-17  1.14619579E-16  8.60490101E-16 -1.62093167E-03
  7.09271611E-03 -7.23357053E-18  5.02604437E-17  7.68380193E-18  3.14883148E-17
 -9.59493616E-17 -2.45095381E-15 -2.27279607E-15  1.17696320E-14 -5.05927695E-02
  2.21378950E-01 -1.78417140E-15 -6.78902732E-02  2.97067694E-01 -3.81185659E-16
 -4.40307110E-02  1.92665329E-01 -3.18810628E-15 -5.85607710E-16  3.52211315E-03
 -1.54117223E-02 -3.27953834E-17  2.13450387E-17  1.01039957E-15  8.54725964E-03
 -3.74002725E-02  1.65356380E-16 -3.31460191E-16  2.94593256E-16 -1.62093167E-03
  7.09271611E-03 -9.58668301E-18  5.47730257E-17  2.78204701E-18  2.41896124E-17
  4.74158945E-16  9.73017455E-16  1.49276760E-16 -6.51448066E-15  2.38693340E-01
  3.09735080E-02 -7.00701662E-16  3.01312744E-01  3.90991750E-02  2.25593902E-16
  6.03457456E-01  7.83063086E-02 -3.61803983E-15  7.85559341E-17 -1.06068423E-02
 -1.37637320E-03  2.40140668E-17 -1.66379814E-16  5.93979079E-16 -1.99570702E-03
 -2.58968463E-04  6.98600646E-17 -2.18615009E-16 -1.21036666E-16 -1.15767773E-03
 -1.50223465E-04  3.53979141E-18  1.82310353E-16 -3.85742059E-17  1.78499339E-17
  8.80821806E-16  3.06888043E-15  7.29068840E-16  1.66117126E-15 -2.38693340E-01
 -3.09735080E-02  1.06827262E-16 -3.01312744E-01 -3.90991750E-02  6.11879176E-16
 -6.03457456E-01 -7.83063086E-02 -4.78621524E-15 -5.36104717E-17 -1.06068423E-02
 -1.37637320E-03  2.13733456E-18 -2.97444157E-17  4.20052924E-17 -1.99570702E-03
 -2.58968463E-04 -2.39317129E-17  1.28559743E-16  5.78665324E-17  1.15767773E-03
  1.50223465E-04  6.37293792E-18 -3.12080363E-17  2.90139896E-17 -6.52371276E-18
  5.36741408E-17  4.01276660E-17 -1.32498353E-16 -1.39471945E-15 -3.09735080E-02
  2.38693340E-01 -1.40169751E-16 -3.90991750E-02  3.01312744E-01  9.02071174E-17
 -7.83063086E-02  6.03457456E-01 -1.24888084E-15  7.12083727E-19  1.37637320E-03
 -1.06068423E-02  1.03037117E-16 -1.52746307E-17 -5.62041801E-17  2.58968463E-04
 -1.99570702E-03  3.13886667E-16  1.87939736E-16  4.27583105E-18  1.50223465E-04
 -1.15767773E-03 -7.59247355E-17  1.93513949E-17  6.08761006E-19  6.12114394E-17
 -2.12835605E-16 -3.18628337E-16  9.70736748E-17  1.63388027E-15  3.09735080E-02
 -2.38693340E-01  1.45436268E-16  3.90991750E-02 -3.01312744E-01  4.84141444E-16
  7.83063086E-02 -6.03457456E-01 -1.70792513E-15 -4.39993162E-19  1.37637320E-03
 -1.06068423E-02  6.92406016E-17 -3.37529685E-17 -9.75492104E-17  2.58968463E-04
 -1.99570702E-03 -1.59759926E-17 -1.41367256E-16 -4.20847508E-17 -1.50223465E-04
  1.15767773E-03  2.03375946E-17  9.37676099E-17  2.47976935E-17  4.40176662E-17
 -3.78694163E-02 -2.74058889E-01 -3.01006788E-02 -4.99527306E+00 -8.33362402E-16
  3.63966149E-16 -1.65612883E-02 -1.15210827E-15  3.61913293E-16 -2.88919591E-01
 -6.91118432E-16 -7.31831483E-16 -3.12632660E+00  2.23111602E-02 -2.29170551E-17
 -4.71686388E-17 -3.50173991E-17  3.91267014E-17 -2.93650289E-01  4.87802580E-17
  2.81173291E-16 -2.39518937E-16  9.90446390E-17 -2.73573610E-02 -1.97920681E-17
  1.45578219E-16 -3.84527515E-18 -1.43408533E-16  2.03735984E-18 -1.13017037E-17
  3.78694163E-02  2.74058889E-01  3.01006788E-02  4.99527306E+00  5.28140679E-16
 -3.19635654E-17 -1.65612883E-02  6.23333859E-16  7.13176409E-16 -2.88919591E-01
  1.27709818E-15  1.20651767E-15 -3.12632660E+00 -2.23111602E-02 -6.58955123E-18
  5.23947148E-17  8.07386567E-18  6.73957780E-17  2.93650289E-01  2.33395578E-16
  3.44194816E-16 -1.07555119E-16  1.09059267E-16 -2.73573610E-02  5.17064295E-17
 -1.43541540E-16  5.09913637E-17 -1.22018777E-16 -2.43978589E-18  1.45081971E-17
 -3.21480257E-02 -1.52996076E-02 -2.31556639E-02 -3.14817322E-01 -4.06737194E-14
 -4.66381566E-14 -1.14589816E-01 -1.50502536E-13 -1.74418516E-13 -4.75871133E-01
  1.96321849E-13  2.27925897E-13  1.14295976E+00 -3.98108919E-02 -2.73893700E-15
 -3.28629747E-15  7.10978168E-17  7.15140029E-17  7.32716232E-02 -2.24200437E-14
 -2.61327507E-14  9.79709237E-17 -1.37151573E-16  1.86302046E-02  1.85876059E-16
  2.50921689E-16 -2.11964127E-18 -3.81072413E-18  2.30155047E-19 -1.07416366E-18
 -3.21480257E-02 -1.52996076E-02 -2.31556639E-02 -3.14817322E-01 -3.97965471E-14
 -4.65433468E-14  1.14589816E-01 -1.49030977E-13 -1.74251904E-13  4.75871133E-01
  1.94873165E-13  2.28768262E-13 -1.14295976E+00 -3.98108919E-02  2.81079422E-15
  3.31571863E-15  2.17341358E-18 -1.93227488E-18  7.32716232E-02  2.25096999E-14
  2.61850963E-14 -2.00348240E-17  6.47935016E-17 -1.86302046E-02  1.94842456E-16
  1.68854013E-16  2.95000177E-18  2.66469256E-18  2.74513006E-19 -9.40174649E-19
 -2.55735420E-15 -5.17966273E-15 -1.33515368E-15 -2.18332407E-15 -1.05041065E-01
  1.01016639E-01 -2.20278851E-15 -3.92259352E-01  3.77230765E-01 -1.06989912E-14
  5.12283080E-01 -4.92656038E-01  2.79401508E-14 -9.52683694E-16 -7.43073890E-03
  7.14604586E-03  8.55803502E-17 -1.66270598E-16  4.83122627E-16 -5.84798600E-02
  5.62393279E-02 -2.79024391E-16 -7.85505733E-16  3.77148433E-16  4.54096877E-04
 -4.36699116E-04 -2.61753190E-17 -3.53401072E-16 -1.42692125E-16  1.75604757E-16
 -2.00412802E-15 -4.43646609E-15 -1.50511603E-15 -3.94594713E-15 -1.05041065E-01
  1.01016639E-01  2.61632018E-15 -3.92259352E-01  3.77230765E-01  1.13925753E-14
  5.12283080E-01 -4.92656038E-01 -2.78107404E-14 -1.10736412E-15  7.43073890E-03
 -7.14604586E-03  6.77493907E-17  3.70393448E-18  1.48822453E-15  5.84798600E-02
 -5.62393279E-02 -8.20906442E-17 -4.78135820E-16 -5.94447106E-16  4.54096877E-04
 -4.36699116E-04 -9.79446436E-17  1.50269327E-16  2.43685945E-16  1.87859048E-16
  1.33990241E-14  5.86235890E-15  9.67498637E-15  1.29210785E-13 -1.01016639E-01
 -1.05041065E-01  4.83341740E-14 -3.77230765E-01 -3.92259352E-01  2.00045154E-13
  4.92656038E-01  5.12283080E-01 -4.84194606E-13  1.67474040E-14 -7.14604586E-03
 -7.43073890E-03  3.81407054E-17 -2.32985077E-17 -3.15359118E-14 -5.62393279E-02
 -5.84798600E-02 -5.84487763E-16 -2.62065731E-19 -7.96505545E-15  4.36699116E-04
  4.54096877E-04  5.68487732E-16  1.19578164E-16  8.09941096E-17  6.64013944E-17
  1.30427932E-14  4.54174720E-15  9.20953803E-15  1.39277099E-13 -1.01016639E-01
 -1.05041065E-01 -4.84301088E-14 -3.77230765E-01 -3.92259352E-01 -2.02241482E-13
  4.92656038E-01  5.12283080E-01  4.81002674E-13  1.69083444E-14  7.14604586E-03
  7.43073890E-03  1.57434530E-16  5.98191275E-16 -3.08531884E-14  5.62393279E-02
  5.84798600E-02 -5.03569618E-16  2.06032820E-16  7.78041831E-15  4.36699116E-04
  4.54096877E-04 -4.70262728E-16 -2.41007505E-16  2.52270452E-16 -6.81793335E-16
 -3.20226726E-01 -9.11015273E-01 -1.57231656E-01  9.20164647E-01  1.71593388E-15
  3.80455636E-16  4.15651442E-02  2.69806261E-15 -2.80462319E-15  8.99724387E-02
  6.69155031E-16  3.09303508E-15  7.91250319E-02 -7.74971161E-03 -8.26420810E-17
  3.19721624E-16  4.83831544E-17 -2.07074490E-16 -1.41248484E-01  2.52165431E-15
  1.43175882E-16 -6.71461157E-16  2.13472023E-15  1.20737326E-03 -1.35252709E-16
  3.68204218E-16  9.88414030E-17 -1.13326311E-15  1.68216496E-17 -9.55244047E-17
 -3.20226726E-01 -9.11015273E-01 -1.57231656E-01  9.20164647E-01  5.44605114E-16
 -4.15779060E-15 -4.15651442E-02  1.92944572E-15  1.54553126E-15 -8.99724387E-02
 -6.95167472E-15 -1.40328326E-15 -7.91250319E-02 -7.74971161E-03  2.99169405E-16
 -3.21415688E-16  5.38165337E-17  6.05712392E-16 -1.41248484E-01  8.42384616E-16
  2.63584674E-15 -2.58281144E-16  2.51938605E-16 -1.20737326E-03 -5.44566659E-16
  1.31887743E-17  2.63880748E-16 -1.04952938E-15 -2.09101138E-17  1.33536492E-16
  1.28351073E-15  2.29509421E-15  2.09455181E-16 -6.67083369E-15 -2.01872523E-01
  4.54788223E-03 -1.95475960E-15 -5.80704312E-01  1.30823888E-02 -4.59641374E-15
  1.41836632E+00 -3.19536452E-02  3.09056501E-17  8.09480435E-17 -1.68515001E-02
  3.79638777E-04 -1.18446052E-16  2.25515242E-16  1.41223287E-15  1.77489426E-01
 -3.99856799E-03 -4.89886754E-16 -1.60675761E-16 -2.66473013E-17  2.69508188E-02
 -6.07161133E-04  5.07010916E-17 -2.81228193E-16  2.02968555E-16  1.08670119E-17
 -3.64837253E-16 -9.05175810E-17  3.18832270E-17  5.05507825E-15  2.01872523E-01
 -4.54788223E-03 -2.13117926E-15  5.80704312E-01 -1.30823888E-02 -5.15332230E-15
 -1.41836632E+00  3.19536452E-02  2.29593013E-15 -3.93696747E-17 -1.68515001E-02
  3.79638777E-04  4.12791513E-18 -1.54146997E-16 -1.32183963E-15  1.77489426E-01
 -3.99856799E-03 -1.08449806E-15  1.57932100E-15 -3.89612732E-17 -2.69508188E-02
  6.07161133E-04  7.95101702E-17 -1.68370088E-16 -1.54263173E-17 -5.47232870E-17
  4.08623270E-16  8.42327091E-16  2.62295639E-16 -1.43513427E-14 -4.54788223E-03
 -2.01872523E-01 -5.27272399E-16 -1.30823888E-02 -5.80704312E-01 -2.71371021E-15
  3.19536452E-02  1.41836632E+00 -5.49561948E-15 -1.04018669E-17 -3.79638777E-04
 -1.68515001E-02 -3.93658824E-16 -2.81384045E-17 -5.16571646E-16  3.99856799E-03
  1.77489426E-01  2.51397312E-16  2.23486252E-15 -1.72449313E-16  6.07161133E-04
  2.69508188E-02  2.83831467E-16 -6.50790730E-16  2.24608650E-17 -3.15725904E-16
 -3.84503464E-16 -1.01773684E-15 -4.76475542E-16  1.45938265E-14  4.54788223E-03
  2.01872523E-01 -4.16796843E-16  1.30823888E-02  5.80704312E-01 -2.53126348E-15
 -3.19536452E-02 -1.41836632E+00 -5.93660533E-15  2.17027534E-17 -3.79638777E-04
 -1.68515001E-02 -4.67225271E-18  3.46727653E-16  6.93932778E-16  3.99856799E-03
  1.77489426E-01  4.76718014E-16  1.56731675E-15 -1.15733065E-16 -6.07161133E-04
 -2.69508188E-02  2.03157677E-16 -5.83932848E-16  9.77424810E-17  1.53057995E-16
 -8.41056854E-02 -7.63018767E-02  3.48253675E-03  3.29207219E-01 -3.60728764E-16
  8.49520380E-16  3.03553129E-01 -4.63436196E-15 -2.96549652E-15  6.12803318E-01
  1.16071820E-14  5.93708175E-15 -3.31300757E-01 -1.21081408E-02 -4.57286251E-16
  2.11423944E-16 -1.08525566E-17 -7.54626385E-17 -2.38739515E-01  3.26517367E-15
  1.40826926E-15  8.96096603E-16  2.09076939E-15 -1.57095072E-03  1.33435064E-17
  7.08432976E-16  1.09205990E-16 -1.33084407E-15  1.84034581E-17 -1.07798723E-16
  8.41056854E-02  7.63018767E-02 -3.48253675E-03 -3.29207219E-01  1.56590190E-15
 -3.42709889E-15  3.03553129E-01  3.70098607E-15  4.88702571E-15  6.12803318E-01
 -1.13972723E-14 -5.08667032E-15 -3.31300757E-01  1.21081408E-02  1.27277742E-16
 -1.83918489E-16  5.90643189E-17  6.96337854E-16  2.38739515E-01  2.59437458E-15
  2.77377313E-15  9.85636960E-16 -5.11715595E-16 -1.57095072E-03 -5.08185213E-16
 -3.65918680E-16  3.24519245E-16 -1.19797976E-15 -2.36547946E-17  1.49074284E-16
 -1.85751660E-01 -6.92506888E-01 -3.11640036E-01  9.48079916E+00 -5.25131889E-16
  2.21694578E-16 -1.66329291E-01 -8.03447822E-16 -6.50691186E-16  1.13192975E+00
  6.76362160E-16  2.61903250E-15  4.10002243E+00  3.21682317E-02 -3.81050389E-17
 -8.80647158E-17 -2.76504095E-17  5.19679277E-17  9.15362213E-01 -2.02007386E-16
  7.90270695E-16  3.92994425E-16  1.33525250E-17  1.31627469E-01 -6.84024365E-18
  2.50931565E-16 -8.35330810E-18 -9.30287121E-17  1.21069323E-18 -6.82934086E-18
  1.85751660E-01  6.92506888E-01  3.11640036E-01 -9.48079916E+00  1.08000973E-16
  2.68204861E-16 -1.66329291E-01  3.94552899E-16  1.07334561E-15  1.13192975E+00
 -1.96861752E-16 -1.41481830E-15  4.10002243E+00 -3.21682317E-02 -1.11067325E-16
  1.18065512E-16  1.34653379E-17  3.36372052E-17 -9.15362213E-01  2.88340065E-16
  6.05659640E-16  2.33756363E-16 -1.47559869E-16  1.31627469E-01  1.71964504E-16
 -3.15837813E-16  3.22708192E-17 -6.32879575E-17 -1.05952137E-18  5.28562127E-18
  8.75254105E-16  2.26517010E-15  3.95313645E-16 -9.08954213E-17  3.69742543E-16
  8.33900334E-16 -3.53782819E-16  7.21416247E-16  2.82508492E-15 -5.24338277E-16
 -6.70692835E-17 -4.48021818E-15  7.91957974E-16  9.02407763E-17 -5.91231103E-17
  5.15969824E-18  4.89845924E-03 -7.87936592E-03 -6.26248856E-16  4.58088589E-15
 -2.43950403E-15 -3.29104969E-01  5.29378393E-01  1.01241853E-16  2.76620130E-16
 -8.04207649E-17 -4.12100009E-03  6.62879204E-03  1.04292205E-16 -8.76932117E-17
  1.12312355E-15  3.10381403E-15  7.04605792E-16 -4.66301904E-15 -9.76540719E-16
 -2.39334365E-16 -1.92469611E-16 -2.75109552E-15  9.28130712E-17 -5.08757597E-16
  1.11982485E-15  2.77248663E-15  2.14699354E-15 -5.33771144E-18 -2.02126140E-17
 -1.33314785E-16  4.89845924E-03 -7.87936592E-03 -4.35041781E-16  5.28246617E-16
  6.98374350E-16 -3.29104969E-01  5.29378393E-01  1.92441786E-17 -2.67845474E-18
 -4.42747907E-17  4.12100009E-03 -6.62879204E-03 -5.77289940E-18  3.02785414E-17
  3.54999806E-16  7.28711437E-16  1.17497961E-16 -4.57409013E-15  5.12392329E-16
  8.40977087E-16 -5.81310684E-16 -1.70036785E-16  7.91177709E-16 -1.71427243E-15
  1.87851459E-15 -2.56869884E-15 -7.44744752E-16 -3.67241177E-17 -4.99598672E-16
  1.21488233E-16 -7.87936592E-03 -4.89845924E-03  8.50657622E-16 -1.02331963E-15
 -9.78526017E-16  5.29378393E-01  3.29104969E-01 -4.93829755E-17  8.63997841E-17
 -5.93800118E-17  6.62879204E-03  4.12100009E-03 -1.66402917E-16  1.59046340E-18
 -2.79427991E-16 -3.88166291E-16 -1.65763126E-16  4.02908555E-15  2.10184437E-16
 -6.77125065E-16 -5.59329406E-16  3.14871496E-16  4.94755297E-16 -1.31777890E-15
 -7.31228074E-16  1.23575020E-15 -1.14810584E-15 -3.48495214E-17  1.92507356E-16
  6.18909753E-17 -7.87936592E-03 -4.89845924E-03  1.35625776E-17  3.15325117E-15
  7.43353938E-17  5.29378393E-01  3.29104969E-01 -1.72936230E-17  3.99469844E-18
  1.22196958E-16 -6.62879204E-03 -4.12100009E-03  2.31028174E-17  3.71979854E-17
  3.78837044E-16  1.00759857E-15  2.27663857E-16 -1.72460144E-15  6.03285015E-03
  7.97228558E-02 -3.26860756E-16  2.17800477E-02  2.87818785E-01 -5.76044698E-16
 -6.86974334E-03 -9.07822247E-02 -4.34268542E-16  5.60906557E-17 -4.73035784E-04
 -6.25106918E-03 -3.12195447E-16 -2.93982442E-16 -3.41210761E-16 -4.65785605E-02
 -6.15525957E-01  1.00976621E-14  5.33914400E-15  1.80943790E-17  1.12904919E-03
  1.49201494E-02 -2.01297942E-16 -7.97157252E-17  1.57369775E-16  1.15225329E-16
  4.24409590E-16  1.23326261E-15  2.99361836E-16 -2.37031390E-16  6.03285015E-03
  7.97228558E-02 -2.23124993E-16  2.17800477E-02  2.87818785E-01 -7.16283686E-16
 -6.86974334E-03 -9.07822247E-02  4.95644467E-16  5.16701857E-17  4.73035784E-04
  6.25106918E-03  1.68046840E-16  4.78104486E-16  6.77375693E-17  4.65785605E-02
  6.15525957E-01 -9.74365787E-15 -8.70228123E-15 -1.05211877E-17  1.12904919E-03
  1.49201494E-02  1.21322970E-16  8.86660532E-17 -1.24708859E-18  1.19899211E-16
 -9.86766508E-17 -1.68518578E-16  6.75974293E-17 -7.25902742E-16  7.97228558E-02
 -6.03285015E-03  6.01059944E-17  2.87818785E-01 -2.17800477E-02  3.38185518E-16
 -9.07822247E-02  6.86974334E-03 -7.50359939E-16 -1.23856189E-16 -6.25106918E-03
  4.73035784E-04  3.40850311E-16 -7.93902951E-17 -1.56107493E-16 -6.15525957E-01
  4.65785605E-02 -1.08453003E-15 -1.51457017E-15 -4.63072182E-17  1.49201494E-02
 -1.12904919E-03 -1.62234817E-16  7.53507250E-16 -1.94352351E-16 -2.75696702E-16
 -1.40425852E-16 -5.25233771E-16 -1.53857948E-16  1.58390697E-15  7.97228558E-02
 -6.03285015E-03  1.24598075E-16  2.87818785E-01 -2.17800477E-02 -1.03337157E-16
 -9.07822247E-02  6.86974334E-03 -3.31042652E-16 -4.52465269E-18  6.25106918E-03
 -4.73035784E-04 -1.34683198E-17 -4.00663914E-16  3.68162266E-17  6.15525957E-01
 -4.65785605E-02 -4.78064142E-15  3.22280383E-15  9.20603925E-17  1.49201494E-02
 -1.12904919E-03 -2.26080262E-16  6.11583761E-16 -9.45253397E-17 -1.83612286E-16
  8.82690070E-16  2.01571276E-15  4.48287499E-16 -6.87547130E-15  2.10395506E-15
 -1.42981596E-15 -5.99044534E-16  5.91157971E-15 -4.68651892E-15 -1.95091136E-15
  1.45638396E-14 -9.87688653E-15 -2.38069190E-15  2.65622178E-17 -7.37959945E-16
  1.08385678E-16  6.68086903E-03 -1.61874166E-02 -1.69868214E-15  2.02514815E-14
 -1.40309711E-14 -3.26098724E-01  7.90121145E-01  8.42973248E-17  8.48199219E-16
 -7.20799174E-16  1.19341992E-03 -2.89159768E-03 -9.59095539E-18  6.02540398E-17
  8.42024021E-16  2.43845006E-15  6.01011196E-16  3.37062960E-15 -1.47326328E-15
  1.10910053E-15 -7.01030906E-16 -4.38588662E-15  2.70471307E-15 -2.21557750E-15
 -1.46936326E-14  1.04663493E-14 -6.39296755E-16 -1.28990718E-17 -4.77494847E-16
  4.77273468E-16 -6.68086903E-03  1.61874166E-02 -4.10362207E-16  2.44750679E-14
 -1.77071282E-14  3.26098724E-01 -7.90121145E-01 -3.91518911E-17 -9.23433553E-16
  4.02553658E-16  1.19341992E-03 -2.89159768E-03 -4.16006479E-18  5.19065499E-17