[Molden Format]
[N_Atoms]
                    2
[Atoms] (AU)
N1          1      7           0.00000000      0.00000000      0.00000000
N2          2      7           0.00000000      0.00000000      3.02356180
[5D]
[7F]
[Charge] (Mulliken)
   0.0000000000000000     
   0.0000000000000000     
[GTO] (AU)
   1
   s  10
  1.142000000E+04  5.229996559E-04
  1.712000000E+03  4.044997339E-03
  3.893000000E+02  2.077498633E-02
  1.100000000E+02  8.072694689E-02
  3.557000000E+01  2.330738467E-01
  1.254000000E+01  4.335007148E-01
  4.644000000E+00  3.474717714E-01
  1.293000000E+00  4.126197285E-02
  5.118000000E-01 -8.507994403E-03
  1.787000000E-01  2.383998432E-03
   s  10
  1.142000000E+04 -1.149999544E-04
  1.712000000E+03 -8.949996452E-04
  3.893000000E+02 -4.623998167E-03
  1.100000000E+02 -1.852799265E-02
  3.557000000E+01 -5.733897727E-02
  1.254000000E+01 -1.320759476E-01
  4.644000000E+00 -1.725099316E-01
  1.293000000E+00  1.518139398E-01
  5.118000000E-01  5.999437621E-01
  1.787000000E-01  3.874618464E-01
   s   1
  1.293000000E+00  1.000000000E+00
   s   1
  1.787000000E-01  1.000000000E+00
   p   5
  2.663000000E+01  1.467000345E-02
  5.948000000E+00  9.176402155E-02
  1.742000000E+00  2.986830701E-01
  5.550000000E-01  4.984871171E-01
  1.725000000E-01  3.370230791E-01
   p   1
  5.550000000E-01  1.000000000E+00
   p   1
  1.725000000E-01  1.000000000E+00
   d   1
  1.654000000E+00  1.000000000E+00
   d   1
  4.690000000E-01  1.000000000E+00
   f   1
  1.093000000E+00  1.000000000E+00
 
   2
   s  10
  1.142000000E+04  5.229996559E-04
  1.712000000E+03  4.044997339E-03
  3.893000000E+02  2.077498633E-02
  1.100000000E+02  8.072694689E-02
  3.557000000E+01  2.330738467E-01
  1.254000000E+01  4.335007148E-01
  4.644000000E+00  3.474717714E-01
  1.293000000E+00  4.126197285E-02
  5.118000000E-01 -8.507994403E-03
  1.787000000E-01  2.383998432E-03
   s  10
  1.142000000E+04 -1.149999544E-04
  1.712000000E+03 -8.949996452E-04
  3.893000000E+02 -4.623998167E-03
  1.100000000E+02 -1.852799265E-02
  3.557000000E+01 -5.733897727E-02
  1.254000000E+01 -1.320759476E-01
  4.644000000E+00 -1.725099316E-01
  1.293000000E+00  1.518139398E-01
  5.118000000E-01  5.999437621E-01
  1.787000000E-01  3.874618464E-01
   s   1
  1.293000000E+00  1.000000000E+00
   s   1
  1.787000000E-01  1.000000000E+00
   p   5
  2.663000000E+01  1.467000345E-02
  5.948000000E+00  9.176402155E-02
  1.742000000E+00  2.986830701E-01
  5.550000000E-01  4.984871171E-01
  1.725000000E-01  3.370230791E-01
   p   1
  5.550000000E-01  1.000000000E+00
   p   1
  1.725000000E-01  1.000000000E+00
   d   1
  1.654000000E+00  1.000000000E+00
   d   1
  4.690000000E-01  1.000000000E+00
   f   1
  1.093000000E+00  1.000000000E+00
 
[MO]
Sym=     1a  
Ene=   -15.6420
Spin= Alpha
Occup=    2.00000
   1         0.70747174
   2         0.00425401
   3        -0.00164401
   4         0.00194915
   5         0.00000000
   6         0.00000000
   7         0.00099976
   8        -0.00000000
   9        -0.00000000
  10        -0.00001746
  11        -0.00000000
  12         0.00000000
  13        -0.00004654
  14        -0.00000000
  15        -0.00000000
  16        -0.00000000
  17         0.00000000
  18         0.00000000
  19         0.00000000
  20         0.00000000
  21        -0.00000000
  22        -0.00000000
  23        -0.00000000
  24        -0.00000000
  25        -0.00000000
  26        -0.00000000
  27        -0.00000000
  28         0.00000000
  29        -0.00000000
  30        -0.00000000
  31         0.70747174
  32         0.00425401
  33        -0.00164401
  34         0.00194915
  35         0.00000000
  36        -0.00000000
  37        -0.00099976
  38        -0.00000000
  39         0.00000000
  40         0.00001746
  41        -0.00000000
  42         0.00000000
  43         0.00004654
  44        -0.00000000
  45        -0.00000000
  46        -0.00000000
  47         0.00000000
  48         0.00000000
  49        -0.00000000
  50         0.00000000
  51        -0.00000000
  52         0.00000000
  53        -0.00000000
  54         0.00000000
  55        -0.00000000
  56         0.00000000
  57        -0.00000000
  58        -0.00000000
  59         0.00000000
  60         0.00000000
Sym=     2a  
Ene=   -15.6280
Spin= Alpha
Occup=    2.00000
   1        -0.70780502
   2        -0.00265487
   3         0.00166083
   4        -0.00194077
   5         0.00000000
   6         0.00000000
   7         0.00096396
   8        -0.00000000
   9        -0.00000000
  10        -0.00001683
  11        -0.00000000
  12         0.00000000
  13        -0.00004487
  14         0.00000000
  15         0.00000000
  16         0.00000000
  17        -0.00000000
  18        -0.00000000
  19        -0.00000000
  20        -0.00000000
  21         0.00000000
  22         0.00000000
  23         0.00000000
  24        -0.00000000
  25         0.00000000
  26         0.00000000
  27         0.00000000
  28        -0.00000000
  29         0.00000000
  30         0.00000000
  31         0.70780502
  32         0.00265487
  33        -0.00166083
  34         0.00194077
  35        -0.00000000
  36        -0.00000000
  37         0.00096396
  38         0.00000000
  39         0.00000000
  40        -0.00001683
  41         0.00000000
  42         0.00000000
  43        -0.00004487
  44        -0.00000000
  45        -0.00000000
  46        -0.00000000
  47         0.00000000
  48        -0.00000000
  49         0.00000000
  50         0.00000000
  51         0.00000000
  52        -0.00000000
  53         0.00000000
  54        -0.00000000
  55        -0.00000000
  56        -0.00000000
  57         0.00000000
  58        -0.00000000
  59        -0.00000000
  60         0.00000000
Sym=     3a  
Ene=    -1.2390
Spin= Alpha
Occup=    2.00000
   1        -0.02475541
   2         0.56704756
   3         0.00574204
   4         0.00322647
   5         0.00000000
   6        -0.00000000
   7         0.18686179
   8        -0.00000000
   9         0.00000000
  10        -0.00326306
  11         0.00000000
  12         0.00000000
  13        -0.00869792
  14         0.00000000
  15        -0.00000000
  16         0.00000000
  17        -0.00000000
  18         0.00000000
  19        -0.00000000
  20         0.00000000
  21        -0.00000000
  22         0.00000000
  23        -0.00000000
  24        -0.00000000
  25        -0.00000000
  26        -0.00000000
  27        -0.00000000
  28         0.00000000
  29         0.00000000
  30         0.00000000
  31        -0.02475541
  32         0.56704756
  33         0.00574204
  34         0.00322647
  35         0.00000000
  36        -0.00000000
  37        -0.18686179
  38        -0.00000000
  39         0.00000000
  40         0.00326306
  41        -0.00000000
  42        -0.00000000
  43         0.00869792
  44        -0.00000000
  45        -0.00000000
  46         0.00000000
  47        -0.00000000
  48         0.00000000
  49         0.00000000
  50         0.00000000
  51        -0.00000000
  52         0.00000000
  53        -0.00000000
  54        -0.00000000
  55        -0.00000000
  56        -0.00000000
  57        -0.00000000
  58        -0.00000000
  59         0.00000000
  60         0.00000000
Sym=     4a  
Ene=    -0.8408
Spin= Alpha
Occup=    2.00000
   1         0.00523331
   2        -0.66076897
   3        -0.00663479
   4        -0.00382398
   5         0.00000000
   6         0.00000000
   7         0.27771671
   8        -0.00000000
   9        -0.00000000
  10        -0.00484960
  11        -0.00000000
  12         0.00000000
  13        -0.01292697
  14        -0.00000000
  15         0.00000000
  16         0.00000000
  17        -0.00000000
  18         0.00000000
  19         0.00000000
  20        -0.00000000
  21         0.00000000
  22        -0.00000000
  23        -0.00000000
  24         0.00000000
  25         0.00000000
  26         0.00000000
  27         0.00000000
  28        -0.00000000
  29        -0.00000000
  30        -0.00000000
  31        -0.00523331
  32         0.66076897
  33         0.00663479
  34         0.00382398
  35        -0.00000000
  36         0.00000000
  37         0.27771671
  38         0.00000000
  39         0.00000000
  40        -0.00484960
  41         0.00000000
  42        -0.00000000
  43        -0.01292697
  44         0.00000000
  45        -0.00000000
  46        -0.00000000
  47         0.00000000
  48        -0.00000000
  49        -0.00000000
  50         0.00000000
  51         0.00000000
  52        -0.00000000
  53         0.00000000
  54         0.00000000
  55        -0.00000000
  56        -0.00000000
  57         0.00000000
  58        -0.00000000
  59         0.00000000
  60        -0.00000000
Sym=     5a  
Ene=    -0.6517
Spin= Alpha
Occup=    2.00000
   1         0.00000000
   2         0.00000000
   3        -0.00000000
   4        -0.00000000
   5         0.66142766
   6        -0.22037793
   7        -0.00000000
   8        -0.01155012
   9         0.00384833
  10         0.00000000
  11        -0.03078769
  12         0.01025801
  13        -0.00000000
  14         0.00000000
  15         0.00000000
  16        -0.00000000
  17         0.00000000
  18        -0.00000000
  19        -0.00000000
  20        -0.00000000
  21         0.00000000
  22         0.00000000
  23         0.00000000
  24        -0.00000000
  25        -0.00000000
  26        -0.00000000
  27         0.00000000
  28         0.00000000
  29        -0.00000000
  30        -0.00000000
  31        -0.00000000
  32        -0.00000000
  33         0.00000000
  34         0.00000000
  35         0.66142766
  36        -0.22037793
  37         0.00000000
  38        -0.01155012
  39         0.00384833
  40         0.00000000
  41        -0.03078769
  42         0.01025801
  43        -0.00000000
  44        -0.00000000
  45        -0.00000000
  46         0.00000000
  47         0.00000000
  48         0.00000000
  49         0.00000000
  50         0.00000000
  51         0.00000000
  52        -0.00000000
  53         0.00000000
  54        -0.00000000
  55        -0.00000000
  56        -0.00000000
  57         0.00000000
  58        -0.00000000
  59        -0.00000000
  60         0.00000000
Sym=     6a  
Ene=    -0.6517
Spin= Alpha
Occup=    2.00000
   1        -0.00000000
   2        -0.00000000
   3         0.00000000
   4         0.00000000
   5         0.22037793
   6         0.66142766
   7         0.00000000
   8        -0.00384833
   9        -0.01155012
  10        -0.00000000
  11        -0.01025801
  12        -0.03078769
  13         0.00000000
  14        -0.00000000
  15         0.00000000
  16         0.00000000
  17         0.00000000
  18         0.00000000
  19         0.00000000
  20        -0.00000000
  21        -0.00000000
  22         0.00000000
  23        -0.00000000
  24        -0.00000000
  25         0.00000000
  26        -0.00000000
  27        -0.00000000
  28         0.00000000
  29        -0.00000000
  30         0.00000000
  31         0.00000000
  32         0.00000000
  33        -0.00000000
  34        -0.00000000
  35         0.22037793
  36         0.66142766
  37         0.00000000
  38        -0.00384833
  39        -0.01155012
  40        -0.00000000
  41        -0.01025801
  42        -0.03078769
  43         0.00000000
  44         0.00000000
  45        -0.00000000
  46        -0.00000000
  47        -0.00000000
  48        -0.00000000
  49        -0.00000000
  50         0.00000000
  51         0.00000000
  52         0.00000000
  53         0.00000000
  54        -0.00000000
  55        -0.00000000
  56        -0.00000000
  57         0.00000000
  58         0.00000000
  59        -0.00000000
  60        -0.00000000
Sym=     7a  
Ene=    -0.6299
Spin= Alpha
Occup=    2.00000
   1         0.01284614
   2         0.31645968
   3         0.00314097
   4         0.00187317
   5        -0.00000000
   6         0.00000000
   7        -0.65890758
   8        -0.00000000
   9         0.00000000
  10         0.01150611
  11        -0.00000000
  12        -0.00000000
  13         0.03067039
  14        -0.00000000
  15         0.00000000
  16        -0.00000000
  17         0.00000000
  18        -0.00000000
  19         0.00000000
  20        -0.00000000
  21        -0.00000000
  22         0.00000000
  23         0.00000000
  24         0.00000000
  25        -0.00000000
  26        -0.00000000
  27        -0.00000000
  28         0.00000000
  29         0.00000000
  30         0.00000000
  31         0.01284614
  32         0.31645968
  33         0.00314097
  34         0.00187317
  35        -0.00000000
  36         0.00000000
  37         0.65890758
  38         0.00000000
  39         0.00000000
  40        -0.01150611
  41         0.00000000
  42        -0.00000000
  43        -0.03067039
  44         0.00000000
  45        -0.00000000
  46         0.00000000
  47         0.00000000
  48         0.00000000
  49        -0.00000000
  50        -0.00000000
  51        -0.00000000
  52         0.00000000
  53        -0.00000000
  54         0.00000000
  55         0.00000000
  56         0.00000000
  57        -0.00000000
  58        -0.00000000
  59        -0.00000000
  60         0.00000000
Sym=     8a  
Ene=    -0.4895
Spin= Alpha
Occup=    0.00000
   1         0.00000000
   2         0.00000000
   3        -0.00000000
   4        -0.00000000
   5        -0.43452206
   6        -0.67701508
   7         0.00000000
   8         0.00758780
   9         0.01182232
  10        -0.00000000
  11         0.02022584
  12         0.03151325
  13        -0.00000000
  14         0.00000000
  15        -0.00000000
  16        -0.00000000
  17        -0.00000000
  18        -0.00000000
  19        -0.00000000
  20        -0.00000000
  21        -0.00000000
  22        -0.00000000
  23        -0.00000000
  24        -0.00000000
  25        -0.00000000
  26         0.00000000
  27         0.00000000
  28         0.00000000
  29        -0.00000000
  30         0.00000000
  31        -0.00000000
  32        -0.00000000
  33         0.00000000
  34         0.00000000
  35         0.43452206
  36         0.67701508
  37         0.00000000
  38        -0.00758780
  39        -0.01182232
  40         0.00000000
  41        -0.02022584
  42        -0.03151325
  43        -0.00000000
  44         0.00000000
  45         0.00000000
  46        -0.00000000
  47         0.00000000
  48         0.00000000
  49         0.00000000
  50        -0.00000000
  51         0.00000000
  52        -0.00000000
  53         0.00000000
  54         0.00000000
  55        -0.00000000
  56         0.00000000
  57         0.00000000
  58        -0.00000000
  59         0.00000000
  60        -0.00000000
Sym=     9a  
Ene=    -0.4895
Spin= Alpha
Occup=    0.00000
   1        -0.00000000
   2         0.00000000
   3         0.00000000
   4         0.00000000
   5        -0.67701508
   6         0.43452206
   7         0.00000000
   8         0.01182232
   9        -0.00758780
  10         0.00000000
  11         0.03151325
  12        -0.02022584
  13         0.00000000
  14        -0.00000000
  15         0.00000000
  16         0.00000000
  17        -0.00000000
  18        -0.00000000
  19         0.00000000
  20        -0.00000000
  21         0.00000000
  22        -0.00000000
  23         0.00000000
  24         0.00000000
  25        -0.00000000
  26        -0.00000000
  27         0.00000000
  28        -0.00000000
  29         0.00000000
  30        -0.00000000
  31         0.00000000
  32        -0.00000000
  33        -0.00000000
  34        -0.00000000
  35         0.67701508
  36        -0.43452206
  37         0.00000000
  38        -0.01182232
  39         0.00758780
  40         0.00000000
  41        -0.03151325
  42         0.02022584
  43         0.00000000
  44         0.00000000
  45         0.00000000
  46         0.00000000
  47        -0.00000000
  48         0.00000000
  49        -0.00000000
  50        -0.00000000
  51         0.00000000
  52        -0.00000000
  53        -0.00000000
  54         0.00000000
  55        -0.00000000
  56         0.00000000
  57         0.00000000
  58         0.00000000
  59        -0.00000000
  60         0.00000000
Sym=    10a  
Ene=    -0.3200
Spin= Alpha
Occup=    0.00000
   1         0.03325104
   2         0.54355248
   3         0.00536828
   4         0.00324779
   5         0.00000000
   6         0.00000000
   7         0.88721422
   8         0.00000000
   9         0.00000000
  10        -0.01549290
  11        -0.00000000
  12        -0.00000000
  13        -0.04129746
  14         0.00000000
  15        -0.00000000
  16        -0.00000000
  17        -0.00000000
  18         0.00000000
  19        -0.00000000
  20         0.00000000
  21        -0.00000000
  22         0.00000000
  23        -0.00000000
  24        -0.00000000
  25        -0.00000000
  26         0.00000000
  27        -0.00000000
  28         0.00000000
  29         0.00000000
  30        -0.00000000
  31        -0.03325104
  32        -0.54355248
  33        -0.00536828
  34        -0.00324779
  35        -0.00000000
  36         0.00000000
  37         0.88721422
  38         0.00000000
  39        -0.00000000
  40        -0.01549290
  41         0.00000000
  42        -0.00000000
  43        -0.04129746
  44        -0.00000000
  45        -0.00000000
  46        -0.00000000
  47        -0.00000000
  48        -0.00000000
  49         0.00000000
  50         0.00000000
  51         0.00000000
  52         0.00000000
  53         0.00000000
  54        -0.00000000
  55        -0.00000000
  56         0.00000000
  57        -0.00000000
  58         0.00000000
  59        -0.00000000
  60         0.00000000
Sym=    11a  
Ene=     3.8002
Spin= Alpha
Occup=    0.00000
   1        -0.07730790
   2        -0.26581796
   3        -0.10569461
   4         2.86563767
   5         0.00000000
   6         0.00000000
   7        -0.01192647
   8        -0.00000000
   9        -0.00000000
  10        -0.41114069
  11         0.00000000
  12         0.00000000
  13         2.64726329
  14        -0.04329095
  15        -0.00000000
  16         0.00000000
  17         0.00000000
  18        -0.00000000
  19         0.42574861
  20         0.00000000
  21         0.00000000
  22        -0.00000000
  23         0.00000000
  24         0.04028943
  25         0.00000000
  26         0.00000000
  27         0.00000000
  28        -0.00000000
  29         0.00000000
  30         0.00000000
  31         0.07730790
  32         0.26581796
  33         0.10569461
  34        -2.86563767
  35        -0.00000000
  36        -0.00000000
  37        -0.01192647
  38         0.00000000
  39         0.00000000
  40        -0.41114069
  41        -0.00000000
  42        -0.00000000
  43         2.64726329
  44         0.04329095
  45         0.00000000
  46         0.00000000
  47        -0.00000000
  48         0.00000000
  49        -0.42574861
  50         0.00000000
  51         0.00000000
  52         0.00000000
  53         0.00000000
  54         0.04028943
  55        -0.00000000
  56        -0.00000000
  57        -0.00000000
  58        -0.00000000
  59        -0.00000000
  60         0.00000000
Sym=    12a  
Ene=     3.9913
Spin= Alpha
Occup=    0.00000
   1        -0.04861725
   2        -0.18839969
   3         0.07144762
   4         0.43456622
   5         0.00000000
   6         0.00000000
   7        -0.11018002
   8        -0.00000000
   9        -0.00000000
  10         0.81913337
  11         0.00000000
  12         0.00000000
  13        -0.98122081
  14         0.00315362
  15        -0.00000000
  16        -0.00000000
  17        -0.00000000
  18         0.00000000
  19         0.02641502
  20         0.00000000
  21         0.00000000
  22        -0.00000000
  23         0.00000000
  24        -0.01895342
  25         0.00000000
  26         0.00000000
  27         0.00000000
  28        -0.00000000
  29         0.00000000
  30        -0.00000000
  31        -0.04861725
  32        -0.18839969
  33         0.07144762
  34         0.43456622
  35        -0.00000000
  36        -0.00000000
  37         0.11018002
  38         0.00000000
  39         0.00000000
  40        -0.81913337
  41        -0.00000000
  42        -0.00000000
  43         0.98122081
  44         0.00315362
  45        -0.00000000
  46        -0.00000000
  47        -0.00000000
  48        -0.00000000
  49         0.02641502
  50         0.00000000
  51         0.00000000
  52        -0.00000000
  53         0.00000000
  54         0.01895342
  55        -0.00000000
  56        -0.00000000
  57         0.00000000
  58         0.00000000
  59        -0.00000000
  60        -0.00000000
Sym=    13a  
Ene=     3.9958
Spin= Alpha
Occup=    0.00000
   1        -0.00000000
   2        -0.00000000
   3         0.00000000
   4         0.00000000
   5        -0.05543474
   6        -0.06533748
   7        -0.00000000
   8         0.50512491
   9         0.59535927
  10         0.00000000
  11        -0.83304954
  12        -0.98186360
  13        -0.00000000
  14         0.00000000
  15         0.00627751
  16         0.00739890
  17        -0.00000000
  18         0.00000000
  19         0.00000000
  20        -0.05426842
  21        -0.06396281
  22         0.00000000
  23         0.00000000
  24        -0.00000000
  25        -0.00935400
  26        -0.01102498
  27         0.00000000
  28        -0.00000000
  29        -0.00000000
  30         0.00000000
  31        -0.00000000
  32        -0.00000000
  33         0.00000000
  34         0.00000000
  35         0.05543474
  36         0.06533748
  37         0.00000000
  38        -0.50512491
  39        -0.59535927
  40        -0.00000000
  41         0.83304954
  42         0.98186360
  43         0.00000000
  44         0.00000000
  45         0.00627751
  46         0.00739890
  47        -0.00000000
  48         0.00000000
  49         0.00000000
  50        -0.05426842
  51        -0.06396281
  52         0.00000000
  53        -0.00000000
  54         0.00000000
  55         0.00935400
  56         0.01102498
  57        -0.00000000
  58         0.00000000
  59         0.00000000
  60        -0.00000000
Sym=    14a  
Ene=     3.9958
Spin= Alpha
Occup=    0.00000
   1         0.00000000
   2         0.00000000
   3        -0.00000000
   4        -0.00000000
   5        -0.06533748
   6         0.05543474
   7         0.00000000
   8         0.59535927
   9        -0.50512491
  10        -0.00000000
  11        -0.98186360
  12         0.83304954
  13         0.00000000
  14        -0.00000000
  15         0.00739890
  16        -0.00627751
  17        -0.00000000
  18         0.00000000
  19         0.00000000
  20        -0.06396281
  21         0.05426842
  22         0.00000000
  23        -0.00000000
  24         0.00000000
  25        -0.01102498
  26         0.00935400
  27        -0.00000000
  28         0.00000000
  29        -0.00000000
  30        -0.00000000
  31         0.00000000
  32         0.00000000
  33        -0.00000000
  34        -0.00000000
  35         0.06533748
  36        -0.05543474
  37        -0.00000000
  38        -0.59535927
  39         0.50512491
  40         0.00000000
  41         0.98186360
  42        -0.83304954
  43        -0.00000000
  44        -0.00000000
  45         0.00739890
  46        -0.00627751
  47         0.00000000
  48        -0.00000000
  49        -0.00000000
  50        -0.06396281
  51         0.05426842
  52         0.00000000
  53         0.00000000
  54        -0.00000000
  55         0.01102498
  56        -0.00935400
  57        -0.00000000
  58        -0.00000000
  59         0.00000000
  60         0.00000000
Sym=    15a  
Ene=     4.0396
Spin= Alpha
Occup=    0.00000
   1        -0.00000000
   2        -0.00000000
   3         0.00000000
   4         0.00000000
   5         0.06390383
   6         0.09100435
   7        -0.00000000
   8        -0.47196142
   9        -0.67211217
  10         0.00000000
  11         0.44397932
  12         0.63226333
  13        -0.00000000
  14         0.00000000
  15         0.00839775
  16         0.01195909
  17         0.00000000
  18        -0.00000000
  19        -0.00000000
  20        -0.07193372
  21        -0.10243957
  22        -0.00000000
  23         0.00000000
  24        -0.00000000
  25        -0.00211732
  26        -0.00301524
  27         0.00000000
  28        -0.00000000
  29         0.00000000
  30         0.00000000
  31        -0.00000000
  32        -0.00000000
  33         0.00000000
  34         0.00000000
  35         0.06390383
  36         0.09100435
  37         0.00000000
  38        -0.47196142
  39        -0.67211217
  40        -0.00000000
  41         0.44397932
  42         0.63226333
  43         0.00000000
  44         0.00000000
  45        -0.00839775
  46        -0.01195909
  47         0.00000000
  48         0.00000000
  49         0.00000000
  50         0.07193372
  51         0.10243957
  52        -0.00000000
  53        -0.00000000
  54         0.00000000
  55        -0.00211732
  56        -0.00301524
  57        -0.00000000
  58         0.00000000
  59         0.00000000
  60        -0.00000000
Sym=    16a  
Ene=     4.0396
Spin= Alpha
Occup=    0.00000
   1        -0.00000000
   2        -0.00000000
   3         0.00000000
   4         0.00000000
   5         0.09100435
   6        -0.06390383
   7        -0.00000000
   8        -0.67211217
   9         0.47196142
  10         0.00000000
  11         0.63226333
  12        -0.44397932
  13        -0.00000000
  14        -0.00000000
  15         0.01195909
  16        -0.00839775
  17         0.00000000
  18         0.00000000
  19         0.00000000
  20        -0.10243957
  21         0.07193372
  22        -0.00000000
  23        -0.00000000
  24        -0.00000000
  25        -0.00301524
  26         0.00211732
  27        -0.00000000
  28        -0.00000000
  29         0.00000000
  30         0.00000000
  31        -0.00000000
  32        -0.00000000
  33         0.00000000
  34         0.00000000
  35         0.09100435
  36        -0.06390383
  37         0.00000000
  38        -0.67211217
  39         0.47196142
  40        -0.00000000
  41         0.63226333
  42        -0.44397932
  43         0.00000000
  44         0.00000000
  45        -0.01195909
  46         0.00839775
  47        -0.00000000
  48         0.00000000
  49        -0.00000000
  50         0.10243957
  51        -0.07193372
  52        -0.00000000
  53        -0.00000000
  54         0.00000000
  55        -0.00301524
  56         0.00211732
  57        -0.00000000
  58         0.00000000
  59        -0.00000000
  60         0.00000000
Sym=    17a  
Ene=     4.3502
Spin= Alpha
Occup=    0.00000
   1         0.53373996
   2         1.95634254
   3        -0.42571180
   4        -1.77192560
   5         0.00000000
   6         0.00000000
   7        -0.00361313
   8        -0.00000000
   9        -0.00000000
  10        -0.02427369
  11         0.00000000
  12         0.00000000
  13         0.02598942
  14        -0.03905030
  15         0.00000000
  16        -0.00000000
  17        -0.00000000
  18         0.00000000
  19         0.29501074
  20        -0.00000000
  21         0.00000000
  22         0.00000000
  23        -0.00000000
  24        -0.00779869
  25         0.00000000
  26        -0.00000000
  27         0.00000000
  28         0.00000000
  29         0.00000000
  30         0.00000000
  31         0.53373996
  32         1.95634254
  33        -0.42571180
  34        -1.77192560
  35        -0.00000000
  36         0.00000000
  37         0.00361313
  38         0.00000000
  39        -0.00000000
  40         0.02427369
  41        -0.00000000
  42         0.00000000
  43        -0.02598942
  44        -0.03905030
  45        -0.00000000
  46         0.00000000
  47        -0.00000000
  48        -0.00000000
  49         0.29501074
  50         0.00000000
  51        -0.00000000
  52         0.00000000
  53         0.00000000
  54         0.00779869
  55         0.00000000
  56        -0.00000000
  57        -0.00000000
  58         0.00000000
  59        -0.00000000
  60        -0.00000000
Sym=    18a  
Ene=     4.4757
Spin= Alpha
Occup=    0.00000
   1        -0.00000000
   2        -0.00000000
   3         0.00000000
   4         0.00000000
   5         0.00000000
   6         0.00000000
   7         0.00000000
   8        -0.00000000
   9        -0.00000000
  10         0.00000000
  11         0.00000000
  12         0.00000000
  13         0.00000000
  14         0.00000000
  15         0.00000000
  16         0.00000000
  17        -0.08825247
  18         0.00000000
  19        -0.00000000
  20        -0.00000000
  21        -0.00000000
  22         0.70722960
  23        -0.00000000
  24         0.00000000
  25         0.00000000
  26        -0.00000000
  27         0.00635715
  28        -0.00000000
  29        -0.00000000
  30        -0.00000000
  31        -0.00000000
  32        -0.00000000
  33         0.00000000
  34         0.00000000
  35         0.00000000
  36         0.00000000
  37        -0.00000000
  38        -0.00000000
  39        -0.00000000
  40        -0.00000000
  41        -0.00000000
  42         0.00000000
  43         0.00000000
  44         0.00000000
  45         0.00000000
  46        -0.00000000
  47        -0.08825247
  48         0.00000000
  49        -0.00000000
  50         0.00000000
  51         0.00000000
  52         0.70722960
  53        -0.00000000
  54        -0.00000000
  55         0.00000000
  56         0.00000000
  57        -0.00635715
  58         0.00000000
  59         0.00000000
  60        -0.00000000
Sym=    19a  
Ene=     4.4757
Spin= Alpha
Occup=    0.00000
   1        -0.00000000
   2        -0.00000000
   3         0.00000000
   4        -0.00000000
   5         0.00000000
   6        -0.00000000
   7         0.00000000
   8        -0.00000000