Starting initial orbital calculation.

Starting MOLCAS:
/public/home/xzzeng/soft/OpenMolcas/build/pymolcas -b 1 -f
MOLCAS environment:
MOLCAS_PROJECT:  n2
MOLCAS_MEM:      12000
WorkDir:         /public/home/xzzeng/work/HQC/N2/cc-pvtz/NO/PES/entropy/0.6/results/scratch
MOLCAS_NPROCS:   1
OMP_NUM_THREADS: 1
QCMaquis_CPU:    1
Initial orbitals finished.
Starting calculation.

Starting MOLCAS:
/public/home/xzzeng/soft/OpenMolcas/build/pymolcas -b 1 -f
MOLCAS environment:
MOLCAS_PROJECT:  n2
MOLCAS_MEM:      12000
WorkDir:         /public/home/xzzeng/work/HQC/N2/cc-pvtz/NO/PES/entropy/0.6/results/scratch
MOLCAS_NPROCS:   1
OMP_NUM_THREADS: 1
QCMaquis_CPU:    1
Calculation finished.

*******************************************************************************************
*                                                                                         *
*                                 Active space search                                     *
*                                                                                         *
*******************************************************************************************
Start active space search for provided set of 8 orbitals and 10 electrons.
Maximal single orbital entropy: 0.01142894204340311
Found plateau, including 8 orbitals.
Found smaller active space.
Selected active space CAS(e, o): (10, 8)
Orbital indices:     [2, 3, 4, 5, 6, 7, 8, 9]
Orbital occupations: [2, 2, 2, 2, 2, 0, 0, 0]


******** <class 'pyscf.scf.hf.RHF'> ********
method = RHF
initial guess = minao
damping factor = 0
level_shift factor = 0
DIIS = <class 'pyscf.scf.diis.CDIIS'>
diis_start_cycle = 1
diis_space = 8
diis_damp = 0
SCF conv_tol = 1e-09
SCF conv_tol_grad = None
SCF max_cycles = 50
direct_scf = True
direct_scf_tol = 1e-13
chkfile to save SCF result = /tmp/tmphf1km36x
max_memory 4000 MB (current use 117 MB)
Set gradient conv threshold to 3.16228e-05
Initial guess from minao.
init E= -110.008695884676
  HOMO = -0.605693678751623  LUMO = 0.290308681226313
cycle= 1 E= -106.214287889048  delta_E= 3.79  |g|= 0.795  |ddm|= 2.02
  HOMO = -0.514275155455333  LUMO = 0.426196643638809
cycle= 2 E= -106.277044008397  delta_E= -0.0628  |g|= 0.248  |ddm|= 0.691
  HOMO = -0.584034684527399  LUMO = 0.401689626550314
cycle= 3 E= -106.285305218772  delta_E= -0.00826  |g|= 0.0328  |ddm|= 0.111
  HOMO = -0.579321525603854  LUMO = 0.402627769831383
cycle= 4 E= -106.285536440597  delta_E= -0.000231  |g|= 0.00343  |ddm|= 0.104
  HOMO = -0.57944262722471  LUMO = 0.402199818058349
cycle= 5 E= -106.285541329484  delta_E= -4.89e-06  |g|= 0.000401  |ddm|= 0.037
  HOMO = -0.579495156067606  LUMO = 0.402184828248328
cycle= 6 E= -106.285541388368  delta_E= -5.89e-08  |g|= 4.18e-05  |ddm|= 0.00496
  HOMO = -0.579499487109218  LUMO = 0.402182646432407
cycle= 7 E= -106.285541388958  delta_E= -5.9e-10  |g|= 4.23e-06  |ddm|= 0.000128
  HOMO = -0.579499122260871  LUMO = 0.402183283250842
Extra cycle  E= -106.285541388964  delta_E= -6.17e-12  |g|= 1.12e-06  |ddm|= 5.97e-05
converged SCF energy = -106.285541388964

******** CASCI flags ********
CAS (5e+5e, 8o), ncore = 2, nvir = 50
natorb = False
canonicalization = True
sorting_mo_energy = False
max_memory 4000 (MB)
******** <class 'pyscf.fci.direct_spin1.FCISolver'> ********
max. cycles = 200
conv_tol = 1e-08
davidson only = False
linear dependence = 1e-12
level shift = 0.001
max iter space = 12
max_memory 4000 MB
nroots = 1
pspace_size = 400
spin = None
Density matrix diagonal elements [1.99989379e+00 1.99926993e+00 1.99926993e+00 1.99928124e+00
 1.99708385e+00 2.07347269e-03 2.07347269e-03 1.05431943e-03]
CASCI converged
CASCI E = -106.290710509422  E(CI) = -38.8507278253332  S^2 = 0.0000000

******** <class 'pyscf.mcscf.mc1step.CASSCF'> ********
CAS (5e+5e, 8o), ncore = 2, nvir = 50
max_cycle_macro = 50
max_cycle_micro = 4
conv_tol = 1e-07
conv_tol_grad = None
orbital rotation max_stepsize = 0.02
orbital rotation threshold for CI restart = 0.01
augmented hessian ah_max_cycle = 30
augmented hessian ah_conv_tol = 1e-12
augmented hessian ah_linear dependence = 1e-14
augmented hessian ah_level shift = 1e-08
augmented hessian ah_start_tol = 2.5
augmented hessian ah_start_cycle = 3
augmented hessian ah_grad_trust_region = 3
kf_trust_region = 3
kf_interval = 4
ci_response_space = 4
ci_grad_trust_region = 3
with_dep4 0
natorb = False
canonicalization = True
sorting_mo_energy = False
ao2mo_level = 2
chkfile = /tmp/tmphf1km36x
max_memory 4000 MB (current use 142 MB)
internal_rotation = False
******** <class 'pyscf.fci.direct_spin1.FCISolver'> ********
max. cycles = 50
conv_tol = 1e-08
davidson only = False
linear dependence = 1e-12
level shift = 0.001
max iter space = 12
max_memory 4000 MB
nroots = 1
pspace_size = 400
spin = None
CASCI E = -106.290710509422  S^2 = 0.0000000
Set conv_tol_grad to 0.000316228
macro iter   1 ( 21 JK    4 micro), CASSCF E = -106.313929048986  dE = -2.32185396e-02  S^2 = 0.0000000
               |grad[o]|=0.0103  |grad[c]|=0.0434  |ddm|=0.0136  |maxRot[o]|=0.309
macro iter   2 ( 21 JK    4 micro), CASSCF E = -106.338114031912  dE = -2.41849829e-02  S^2 = 0.0000000
               |grad[o]|=0.0292  |grad[c]|=0.0293  |ddm|= 0.01  |maxRot[o]|=0.304
macro iter   3 ( 21 JK    4 micro), CASSCF E = -106.344023896374  dE = -5.90986446e-03  S^2 = 0.0000000
               |grad[o]|=0.0195  |grad[c]|=0.0334  |ddm|=0.00289  |maxRot[o]|=0.247
macro iter   4 (  7 JK    2 micro), CASSCF E = -106.344821081960  dE = -7.97185587e-04  S^2 = 0.0000000
               |grad[o]|=0.0062  |grad[c]|=0.0102  |ddm|=0.00185  |maxRot[o]|=0.0699
macro iter   5 ( 14 JK    4 micro), CASSCF E = -106.346434790837  dE = -1.61370888e-03  S^2 = 0.0000000
               |grad[o]|=0.00612  |grad[c]|=0.0306  |ddm|=0.00453  |maxRot[o]|=0.158
macro iter   6 ( 17 JK    4 micro), CASSCF E = -106.347494872506  dE = -1.06008167e-03  S^2 = 0.0000000
               |grad[o]|=0.00771  |grad[c]|=0.0273  |ddm|=0.00304  |maxRot[o]|=0.113
macro iter   7 ( 15 JK    4 micro), CASSCF E = -106.348335656387  dE = -8.40783882e-04  S^2 = 0.0000000
               |grad[o]|=0.00579  |grad[c]|=0.0173  |ddm|=0.00376  |maxRot[o]|=0.187
macro iter   8 ( 12 JK    4 micro), CASSCF E = -106.348400940674  dE = -6.52842864e-05  S^2 = 0.0000000
               |grad[o]|=0.00463  |grad[c]|=0.00434  |ddm|=0.000875  |maxRot[o]|=0.0537
macro iter   9 (  9 JK    4 micro), CASSCF E = -106.348408970252  dE = -8.02957845e-06  S^2 = 0.0000000
               |grad[o]|=0.00196  |grad[c]|=0.00161  |ddm|=9.51e-05  |maxRot[o]|=0.00745
macro iter  10 (  9 JK    4 micro), CASSCF E = -106.348414795030  dE = -5.82477774e-06  S^2 = 0.0000000
               |grad[o]|=0.00161  |grad[c]|=0.000603  |ddm|=3.73e-05  |maxRot[o]|=0.00957
macro iter  11 (  3 JK    1 micro), CASSCF E = -106.348415920597  dE = -1.12556722e-06  S^2 = 0.0000000
               |grad[o]|=0.000622  |grad[c]|=0.000602  |ddm|=1.66e-05  |maxRot[o]|=0.00584
macro iter  12 (  3 JK    1 micro), CASSCF E = -106.348415948464  dE = -2.78666619e-08  S^2 = 0.0000000
               |grad[o]|=4.52e-05  |grad[c]|=0.000154  |ddm|=7.85e-06  |maxRot[o]|=0.000645
1-step CASSCF converged in  12 macro (152 JK  40 micro) steps
CASSCF canonicalization
Density matrix diagonal elements [1.99795194 1.98942404 1.98942404 1.99792744 1.99711403 0.01240077
 0.01240077 0.00335699]
CASSCF energy = -106.348415948464
CASCI E = -106.348415948464  E(CI) = -39.4355186358305  S^2 = 0.0000000
Natural occ [1.99889333 1.99717814 1.99698605 1.98942404 1.98942404 0.01240077
 0.01240077 0.00329288]
Natural orbital (expansion on meta-Lowdin AOs) in CAS space
               #1        #2        #3        #4        #5       
0 N 1s           0.08126   0.04668  -0.05142  -0.00000  -0.00000
0 N 2s           0.69785   0.31046   0.08120  -0.00000  -0.00000
0 N 3s          -0.01120  -0.01602   0.10358  -0.00000  -0.00000
0 N 4s          -0.00077  -0.01261  -0.01059   0.00000   0.00000
0 N 2px          0.00000   0.00000  -0.00000   0.54965   0.40600
0 N 2py          0.00000   0.00000  -0.00000  -0.40600   0.54965
0 N 2pz         -0.07747  -0.63192   0.67754   0.00000   0.00000
0 N 3px         -0.00000  -0.00000   0.00000  -0.12780  -0.09440
0 N 3py         -0.00000  -0.00000   0.00000   0.09440  -0.12780
0 N 3pz         -0.01350  -0.03841  -0.08304   0.00000   0.00000
0 N 4px          0.00000  -0.00000   0.00000   0.01891   0.01397
0 N 4py         -0.00000   0.00000   0.00000  -0.01397   0.01891
0 N 4pz         -0.00067   0.01127  -0.05897   0.00000  -0.00000
0 N 3dxy        -0.00000  -0.00000  -0.00000   0.00000  -0.00000
0 N 3dyz         0.00000  -0.00000  -0.00000  -0.03907   0.05289
0 N 3dz^2       -0.00072  -0.00124   0.09978   0.00000   0.00000
0 N 3dxz        -0.00000   0.00000  -0.00000   0.05289   0.03907
0 N 3dx2-y2     -0.00000  -0.00000  -0.00000   0.00000  -0.00000
0 N 4dxy        -0.00000  -0.00000  -0.00000   0.00000   0.00000
0 N 4dyz        -0.00000  -0.00000   0.00000   0.02865  -0.03879
0 N 4dz^2        0.00722   0.00516   0.01964  -0.00000  -0.00000
0 N 4dxz        -0.00000  -0.00000   0.00000  -0.03879  -0.02865
0 N 4dx2-y2     -0.00000  -0.00000   0.00000   0.00000   0.00000
0 N 4f-3        -0.00000   0.00000  -0.00000   0.00000   0.00000
0 N 4f-2         0.00000   0.00000  -0.00000  -0.00000  -0.00000
0 N 4f-1         0.00000  -0.00000  -0.00000  -0.01457   0.01972
0 N 4f+0        -0.00638   0.00826   0.01229  -0.00000  -0.00000
0 N 4f+1         0.00000   0.00000  -0.00000   0.01972   0.01457
0 N 4f+2         0.00000  -0.00000  -0.00000   0.00000   0.00000
0 N 4f+3         0.00000  -0.00000   0.00000  -0.00000   0.00000
1 N 1s           0.08126  -0.04668  -0.05142   0.00000  -0.00000
1 N 2s           0.69785  -0.31046   0.08120  -0.00000  -0.00000
1 N 3s          -0.01120   0.01602   0.10358   0.00000   0.00000
1 N 4s          -0.00077   0.01261  -0.01059  -0.00000   0.00000
1 N 2px          0.00000   0.00000  -0.00000   0.54965   0.40600
1 N 2py          0.00000   0.00000  -0.00000  -0.40600   0.54965
1 N 2pz          0.07747  -0.63192  -0.67754   0.00000  -0.00000
1 N 3px         -0.00000  -0.00000   0.00000  -0.12780  -0.09440
1 N 3py         -0.00000  -0.00000   0.00000   0.09440  -0.12780
1 N 3pz          0.01350  -0.03841   0.08304   0.00000   0.00000
1 N 4px         -0.00000   0.00000  -0.00000   0.01891   0.01397
1 N 4py          0.00000  -0.00000  -0.00000  -0.01397   0.01891
1 N 4pz          0.00067   0.01127   0.05897   0.00000   0.00000
1 N 3dxy        -0.00000  -0.00000   0.00000   0.00000  -0.00000
1 N 3dyz         0.00000  -0.00000  -0.00000   0.03907  -0.05289
1 N 3dz^2       -0.00072   0.00124   0.09978  -0.00000  -0.00000
1 N 3dxz        -0.00000   0.00000  -0.00000  -0.05289  -0.03907
1 N 3dx2-y2      0.00000  -0.00000   0.00000   0.00000  -0.00000
1 N 4dxy        -0.00000  -0.00000   0.00000   0.00000  -0.00000
1 N 4dyz         0.00000  -0.00000  -0.00000  -0.02865   0.03879
1 N 4dz^2        0.00722  -0.00516   0.01964   0.00000   0.00000
1 N 4dxz         0.00000   0.00000  -0.00000   0.03879   0.02865
1 N 4dx2-y2      0.00000  -0.00000   0.00000   0.00000   0.00000
1 N 4f-3        -0.00000  -0.00000  -0.00000   0.00000   0.00000
1 N 4f-2        -0.00000   0.00000  -0.00000   0.00000  -0.00000
1 N 4f-1         0.00000   0.00000   0.00000  -0.01457   0.01972
1 N 4f+0         0.00638   0.00826  -0.01229  -0.00000   0.00000
1 N 4f+1         0.00000   0.00000  -0.00000   0.01972   0.01457
1 N 4f+2         0.00000  -0.00000  -0.00000   0.00000   0.00000
1 N 4f+3         0.00000   0.00000   0.00000  -0.00000   0.00000
               #6        #7        #8       
0 N 1s          -0.00000  -0.00000  -0.00187
0 N 2s          -0.00000   0.00000   0.53692
0 N 3s           0.00000  -0.00000  -0.07675
0 N 4s           0.00000   0.00000   0.14172
0 N 2px          0.19714   0.66118   0.00000
0 N 2py          0.66118  -0.19714  -0.00000
0 N 2pz         -0.00000   0.00000   0.28074
0 N 3px         -0.03042  -0.10201   0.00000
0 N 3py         -0.10201   0.03042  -0.00000
0 N 3pz         -0.00000   0.00000  -0.26604
0 N 4px          0.01312   0.04401  -0.00000
0 N 4py          0.04401  -0.01312   0.00000
0 N 4pz         -0.00000   0.00000   0.03726
0 N 3dxy        -0.00000   0.00000   0.00000
0 N 3dyz         0.03813  -0.01137  -0.00000
0 N 3dz^2       -0.00000   0.00000  -0.08771
0 N 3dxz         0.01137   0.03813   0.00000
0 N 3dx2-y2     -0.00000  -0.00000   0.00000
0 N 4dxy         0.00000   0.00000  -0.00000
0 N 4dyz         0.07897  -0.02355  -0.00000
0 N 4dz^2       -0.00000  -0.00000   0.16207
0 N 4dxz         0.02355   0.07897   0.00000
0 N 4dx2-y2      0.00000   0.00000  -0.00000
0 N 4f-3        -0.00000   0.00000  -0.00000
0 N 4f-2        -0.00000   0.00000  -0.00000
0 N 4f-1        -0.04462   0.01330  -0.00000
0 N 4f+0        -0.00000  -0.00000  -0.02815
0 N 4f+1        -0.01330  -0.04462   0.00000
0 N 4f+2         0.00000   0.00000   0.00000
0 N 4f+3         0.00000   0.00000   0.00000
1 N 1s           0.00000   0.00000   0.00187
1 N 2s           0.00000  -0.00000  -0.53692
1 N 3s          -0.00000   0.00000   0.07675
1 N 4s           0.00000  -0.00000  -0.14172
1 N 2px         -0.19714  -0.66118  -0.00000
1 N 2py         -0.66118   0.19714  -0.00000
1 N 2pz          0.00000   0.00000   0.28074
1 N 3px          0.03042   0.10201  -0.00000
1 N 3py          0.10201  -0.03042   0.00000
1 N 3pz         -0.00000   0.00000  -0.26604
1 N 4px         -0.01312  -0.04401   0.00000
1 N 4py         -0.04401   0.01312  -0.00000
1 N 4pz          0.00000   0.00000   0.03726
1 N 3dxy        -0.00000   0.00000  -0.00000
1 N 3dyz         0.03813  -0.01137  -0.00000
1 N 3dz^2       -0.00000  -0.00000   0.08771
1 N 3dxz         0.01137   0.03813   0.00000
1 N 3dx2-y2     -0.00000  -0.00000   0.00000
1 N 4dxy         0.00000   0.00000   0.00000
1 N 4dyz         0.07897  -0.02355  -0.00000
1 N 4dz^2       -0.00000   0.00000  -0.16207
1 N 4dxz         0.02355   0.07897   0.00000
1 N 4dx2-y2     -0.00000   0.00000  -0.00000
1 N 4f-3         0.00000  -0.00000   0.00000
1 N 4f-2         0.00000  -0.00000  -0.00000
1 N 4f-1         0.04462  -0.01330   0.00000
1 N 4f+0         0.00000  -0.00000  -0.02815
1 N 4f+1         0.01330   0.04462  -0.00000
1 N 4f+2         0.00000   0.00000  -0.00000
1 N 4f+3        -0.00000  -0.00000   0.00000
<CAS-nat-orb|mo-hf>  3      3        0.70936829
<CAS-nat-orb|mo-hf>  3      6       -0.69608754
<CAS-nat-orb|mo-hf>  4      7        0.99791890
<CAS-nat-orb|mo-hf>  5      3        0.70358704
<CAS-nat-orb|mo-hf>  5      6        0.70866941
<CAS-nat-orb|mo-hf>  6      5        0.99989109
<CAS-nat-orb|mo-hf>  7      4        0.99989109
<CAS-nat-orb|mo-hf>  8      8        0.49685535
<CAS-nat-orb|mo-hf>  8      15      -0.47821720
<CAS-nat-orb|mo-hf>  8      16       0.56991678
<CAS-nat-orb|mo-hf>  9      9        0.49685535
<CAS-nat-orb|mo-hf>  9      15       0.56991678
<CAS-nat-orb|mo-hf>  9      16       0.47821720
<CAS-nat-orb|mo-hf>  10     25      -0.46734035
<CAS-nat-orb|mo-hf>  10     31      -0.47432254
<CAS-nat-orb|mo-hf>  10     38       0.56059920
Sr    (-1)',   E = -0.05785630064089
Si    (+1)',   E = -0.00008797006961
Sijrs (0)  ,   E = -0.01514112723080
Sijr  (+1) ,   E = -0.00259269261535
Srsi  (-1) ,   E = -0.01505761437908
Srs   (-2) ,   E = -0.14222942629207
Sij   (+2) ,   E = -0.00036304753664
Sir   (0)' ,   E = -0.00565040159878
Nevpt2 Energy = -0.238978580363214
Starting initial orbital calculation.

Starting MOLCAS:
/public/home/xzzeng/soft/OpenMolcas/build/pymolcas -b 1 -f
MOLCAS environment:
MOLCAS_PROJECT:  n2
MOLCAS_MEM:      12000
WorkDir:         /public/home/xzzeng/work/HQC/N2/cc-pvtz/NO/PES/entropy/0.8/results/scratch
MOLCAS_NPROCS:   1
OMP_NUM_THREADS: 1
QCMaquis_CPU:    1
Initial orbitals finished.
Starting calculation.

Starting MOLCAS:
/public/home/xzzeng/soft/OpenMolcas/build/pymolcas -b 1 -f
MOLCAS environment:
MOLCAS_PROJECT:  n2
MOLCAS_MEM:      12000
WorkDir:         /public/home/xzzeng/work/HQC/N2/cc-pvtz/NO/PES/entropy/0.8/results/scratch
MOLCAS_NPROCS:   1
OMP_NUM_THREADS: 1
QCMaquis_CPU:    1
Calculation finished.

*******************************************************************************************
*                                                                                         *
*                                 Active space search                                     *
*                                                                                         *
*******************************************************************************************
Start active space search for provided set of 8 orbitals and 10 electrons.
Maximal single orbital entropy: 0.04766774872487583
Found plateau, including 7 orbitals.
Found smaller active space.
Selected active space CAS(e, o): (8, 7)
Orbital indices:     [3, 4, 5, 6, 7, 8, 9]
Orbital occupations: [2, 2, 2, 2, 0, 0, 0]


******** <class 'pyscf.scf.hf.RHF'> ********
method = RHF
initial guess = minao
damping factor = 0
level_shift factor = 0
DIIS = <class 'pyscf.scf.diis.CDIIS'>
diis_start_cycle = 1
diis_space = 8
diis_damp = 0
SCF conv_tol = 1e-09
SCF conv_tol_grad = None
SCF max_cycles = 50
direct_scf = True
direct_scf_tol = 1e-13
chkfile to save SCF result = /tmp/tmp45d74q_h
max_memory 4000 MB (current use 159 MB)
Set gradient conv threshold to 3.16228e-05
Initial guess from minao.
init E= -110.124682211419
  HOMO = -0.494883464078096  LUMO = 0.193382192085514
cycle= 1 E= -108.489114554094  delta_E= 1.64  |g|= 0.269  |ddm|= 1.57
  HOMO = -0.638202854687879  LUMO = 0.326393081261735
cycle= 2 E= -108.49839373264  delta_E= -0.00928  |g|= 0.0461  |ddm|= 0.129
  HOMO = -0.659806085485508  LUMO = 0.31675992126228
cycle= 3 E= -108.498820045257  delta_E= -0.000426  |g|= 0.014  |ddm|= 0.027
  HOMO = -0.655814489093309  LUMO = 0.319293292901844
cycle= 4 E= -108.498849098415  delta_E= -2.91e-05  |g|= 0.00093  |ddm|= 0.0123
  HOMO = -0.656086147845461  LUMO = 0.319097322186052
cycle= 5 E= -108.498849435997  delta_E= -3.38e-07  |g|= 0.000127  |ddm|= 0.00501
  HOMO = -0.65607669719706  LUMO = 0.319090753467748
cycle= 6 E= -108.498849442574  delta_E= -6.58e-09  |g|= 1.49e-05  |ddm|= 0.001
  HOMO = -0.656071944522612  LUMO = 0.319091141757237
cycle= 7 E= -108.498849442673  delta_E= -9.98e-11  |g|= 2e-06  |ddm|= 4.51e-05
  HOMO = -0.656071997765345  LUMO = 0.319090976977818
Extra cycle  E= -108.498849442675  delta_E= -1.25e-12  |g|= 6.08e-07  |ddm|= 2.8e-06
converged SCF energy = -108.498849442675

******** CASCI flags ********
CAS (4e+4e, 7o), ncore = 3, nvir = 50
natorb = False
canonicalization = True
sorting_mo_energy = False
max_memory 4000 (MB)
******** <class 'pyscf.fci.direct_spin1.FCISolver'> ********
max. cycles = 200
conv_tol = 1e-08
davidson only = False
linear dependence = 1e-12
level shift = 0.001
max iter space = 12
max_memory 4000 MB
nroots = 1
pspace_size = 400
spin = None
Density matrix diagonal elements [1.99334759e+00 1.99334759e+00 1.99443442e+00 1.99820409e+00
 9.86180871e-03 9.86180871e-03 9.42685875e-04]
CASCI converged
CASCI E = -108.516965464685  E(CI) = -21.1072703664396  S^2 = 0.0000000

******** <class 'pyscf.mcscf.mc1step.CASSCF'> ********
CAS (4e+4e, 7o), ncore = 3, nvir = 50
max_cycle_macro = 50
max_cycle_micro = 4
conv_tol = 1e-07
conv_tol_grad = None
orbital rotation max_stepsize = 0.02
orbital rotation threshold for CI restart = 0.01
augmented hessian ah_max_cycle = 30
augmented hessian ah_conv_tol = 1e-12
augmented hessian ah_linear dependence = 1e-14
augmented hessian ah_level shift = 1e-08
augmented hessian ah_start_tol = 2.5
augmented hessian ah_start_cycle = 3
augmented hessian ah_grad_trust_region = 3
kf_trust_region = 3
kf_interval = 4
ci_response_space = 4
ci_grad_trust_region = 3
with_dep4 0
natorb = False
canonicalization = True
sorting_mo_energy = False
ao2mo_level = 2
chkfile = /tmp/tmp45d74q_h
max_memory 4000 MB (current use 147 MB)
internal_rotation = False
******** <class 'pyscf.fci.direct_spin1.FCISolver'> ********
max. cycles = 50
conv_tol = 1e-08
davidson only = False
linear dependence = 1e-12
level shift = 0.001
max iter space = 12
max_memory 4000 MB
nroots = 1
pspace_size = 400
spin = None
CASCI E = -108.516965464685  S^2 = 0.0000000
Set conv_tol_grad to 0.000316228
macro iter   1 ( 21 JK    4 micro), CASSCF E = -108.547349079003  dE = -3.03836143e-02  S^2 = 0.0000000
               |grad[o]|=0.0295  |grad[c]|=0.037  |ddm|=0.0229  |maxRot[o]|=0.314
macro iter   2 ( 21 JK    4 micro), CASSCF E = -108.568186698128  dE = -2.08376191e-02  S^2 = 0.0000000
               |grad[o]|=0.0371  |grad[c]|=0.0236  |ddm|=0.013  |maxRot[o]|=  0.3
macro iter   3 ( 21 JK    4 micro), CASSCF E = -108.574089850064  dE = -5.90315194e-03  S^2 = 0.0000000
               |grad[o]|=0.0221  |grad[c]|=0.055  |ddm|=0.0106  |maxRot[o]|=0.313
macro iter   4 ( 21 JK    4 micro), CASSCF E = -108.579125607573  dE = -5.03575751e-03  S^2 = 0.0000000
               |grad[o]|=0.0165  |grad[c]|=0.0444  |ddm|=0.0125  |maxRot[o]|=0.309
macro iter   5 ( 21 JK    4 micro), CASSCF E = -108.583451965603  dE = -4.32635803e-03  S^2 = 0.0000000
               |grad[o]|=0.0168  |grad[c]|=0.0393  |ddm|=0.00882  |maxRot[o]|= 0.29
macro iter   6 ( 14 JK    4 micro), CASSCF E = -108.584257419393  dE = -8.05453790e-04  S^2 = 0.0000000
               |grad[o]|=0.0153  |grad[c]|=0.00186  |ddm|=0.00222  |maxRot[o]|= 0.15
macro iter   7 (  6 JK    2 micro), CASSCF E = -108.584257526597  dE = -1.07204229e-07  S^2 = 0.0000000
               |grad[o]|=0.000397  |grad[c]|=5.5e-05  |ddm|=2.72e-05  |maxRot[o]|=0.00148
macro iter   8 (  1 JK    1 micro), CASSCF E = -108.584257526597  dE = -1.42108547e-14  S^2 = 0.0000000
               |grad[o]|=1.52e-05  |grad[c]|=4.63e-07  |ddm|=    0  |maxRot[o]|=    0
1-step CASSCF converged in   8 macro (126 JK  27 micro) steps
CASSCF canonicalization
Density matrix diagonal elements [1.97802999 1.97802999 1.99438347 1.99423187 0.02469901 0.02469901
 0.00592666]
CASSCF energy = -108.584257526597
CASCI E = -108.584257526597  E(CI) = -24.9097499424303  S^2 = 0.0000000
Natural occ [1.9944288  1.99423187 1.97802999 1.97802999 0.02469901 0.02469901
 0.00588133]
Natural orbital (expansion on meta-Lowdin AOs) in CAS space
               #1        #2        #3        #4        #5       
0 N 1s           0.02941   0.02490  -0.00000   0.00000  -0.00000
0 N 2s           0.42220  -0.15882  -0.00000   0.00000   0.00000
0 N 3s          -0.01321  -0.11405   0.00000   0.00000  -0.00000
0 N 4s          -0.00733  -0.00121   0.00000  -0.00000   0.00000
0 N 2px         -0.00000   0.00000   0.63424   0.29216  -0.60991
0 N 2py         -0.00000   0.00000  -0.29216   0.63424   0.33675
0 N 2pz         -0.56587  -0.66384  -0.00000  -0.00000   0.00000
0 N 3px          0.00000  -0.00000  -0.08004  -0.03687   0.08730
0 N 3py          0.00000  -0.00000   0.03687  -0.08004  -0.04820
0 N 3pz         -0.01891   0.08359  -0.00000  -0.00000  -0.00000
0 N 4px         -0.00000   0.00000  -0.00184  -0.00085  -0.02393
0 N 4py          0.00000   0.00000   0.00085  -0.00184   0.01321
0 N 4pz          0.00587   0.03563  -0.00000  -0.00000   0.00000
0 N 3dxy         0.00000   0.00000   0.00000  -0.00000  -0.00000
0 N 3dyz        -0.00000  -0.00000  -0.02559   0.05554   0.01755
0 N 3dz^2       -0.00577  -0.10662  -0.00000   0.00000   0.00000
0 N 3dxz         0.00000  -0.00000   0.05554   0.02559  -0.03179
0 N 3dx2-y2     -0.00000   0.00000  -0.00000  -0.00000   0.00000
0 N 4dxy        -0.00000  -0.00000   0.00000  -0.00000  -0.00000
0 N 4dyz        -0.00000  -0.00000   0.00946  -0.02054   0.01936
0 N 4dz^2        0.00100  -0.00498   0.00000   0.00000  -0.00000
0 N 4dxz         0.00000  -0.00000  -0.02054  -0.00946  -0.03506
0 N 4dx2-y2      0.00000  -0.00000   0.00000  -0.00000   0.00000
0 N 4f-3         0.00000   0.00000  -0.00000  -0.00000   0.00000
0 N 4f-2         0.00000   0.00000  -0.00000  -0.00000  -0.00000
0 N 4f-1        -0.00000  -0.00000  -0.00801   0.01739  -0.01524
0 N 4f+0         0.00428  -0.02853  -0.00000   0.00000  -0.00000
0 N 4f+1         0.00000  -0.00000   0.01739   0.00801   0.02760
0 N 4f+2         0.00000   0.00000   0.00000   0.00000   0.00000
0 N 4f+3        -0.00000   0.00000   0.00000  -0.00000  -0.00000
1 N 1s          -0.02941   0.02490   0.00000  -0.00000   0.00000
1 N 2s          -0.42220  -0.15882   0.00000  -0.00000  -0.00000
1 N 3s           0.01321  -0.11405  -0.00000  -0.00000   0.00000
1 N 4s           0.00733  -0.00121  -0.00000  -0.00000   0.00000
1 N 2px         -0.00000   0.00000   0.63424   0.29216   0.60991
1 N 2py         -0.00000   0.00000  -0.29216   0.63424  -0.33675
1 N 2pz         -0.56587   0.66384  -0.00000  -0.00000   0.00000
1 N 3px          0.00000  -0.00000  -0.08004  -0.03687  -0.08730
1 N 3py          0.00000   0.00000   0.03687  -0.08004   0.04820
1 N 3pz         -0.01891  -0.08359  -0.00000  -0.00000   0.00000
1 N 4px          0.00000  -0.00000  -0.00184  -0.00085   0.02393
1 N 4py         -0.00000  -0.00000   0.00085  -0.00184  -0.01321
1 N 4pz          0.00587  -0.03563  -0.00000  -0.00000   0.00000
1 N 3dxy         0.00000   0.00000   0.00000  -0.00000   0.00000
1 N 3dyz        -0.00000  -0.00000   0.02559  -0.05554   0.01755
1 N 3dz^2        0.00577  -0.10662   0.00000   0.00000  -0.00000
1 N 3dxz         0.00000  -0.00000  -0.05554  -0.02559  -0.03179
1 N 3dx2-y2      0.00000   0.00000   0.00000  -0.00000  -0.00000
1 N 4dxy        -0.00000   0.00000   0.00000  -0.00000   0.00000
1 N 4dyz        -0.00000  -0.00000  -0.00946   0.02054   0.01936
1 N 4dz^2       -0.00100  -0.00498   0.00000   0.00000  -0.00000
1 N 4dxz         0.00000  -0.00000   0.02054   0.00946  -0.03506
1 N 4dx2-y2      0.00000  -0.00000   0.00000  -0.00000   0.00000
1 N 4f-3        -0.00000   0.00000  -0.00000  -0.00000  -0.00000
1 N 4f-2        -0.00000   0.00000  -0.00000   0.00000  -0.00000
1 N 4f-1         0.00000   0.00000  -0.00801   0.01739   0.01524
1 N 4f+0         0.00428   0.02853  -0.00000  -0.00000   0.00000
1 N 4f+1        -0.00000   0.00000   0.01739   0.00801  -0.02760
1 N 4f+2        -0.00000  -0.00000  -0.00000   0.00000  -0.00000
1 N 4f+3        -0.00000  -0.00000   0.00000  -0.00000   0.00000
               #6        #7       
0 N 1s          -0.00000   0.00144
0 N 2s          -0.00000  -0.53258
0 N 3s           0.00000   0.07192
0 N 4s           0.00000  -0.06620
0 N 2px          0.33675  -0.00000
0 N 2py          0.60991   0.00000
0 N 2pz          0.00000  -0.40405
0 N 3px         -0.04820   0.00000
0 N 3py         -0.08730  -0.00000
0 N 3pz         -0.00000   0.19099
0 N 4px          0.01321  -0.00000
0 N 4py          0.02393   0.00000
0 N 4pz         -0.00000  -0.00758
0 N 3dxy        -0.00000  -0.00000
0 N 3dyz         0.03179  -0.00000
0 N 3dz^2       -0.00000  -0.02600
0 N 3dxz         0.01755   0.00000
0 N 3dx2-y2      0.00000   0.00000
0 N 4dxy        -0.00000  -0.00000
0 N 4dyz         0.03506  -0.00000
0 N 4dz^2       -0.00000  -0.06309
0 N 4dxz         0.01936   0.00000
0 N 4dx2-y2     -0.00000  -0.00000
0 N 4f-3        -0.00000   0.00000
0 N 4f-2        -0.00000   0.00000
0 N 4f-1        -0.02760  -0.00000
0 N 4f+0        -0.00000   0.04854
0 N 4f+1        -0.01524   0.00000
0 N 4f+2         0.00000  -0.00000
0 N 4f+3        -0.00000   0.00000
1 N 1s           0.00000  -0.00144
1 N 2s           0.00000   0.53258
1 N 3s          -0.00000  -0.07192
1 N 4s          -0.00000   0.06620
1 N 2px         -0.33675   0.00000
1 N 2py         -0.60991  -0.00000
1 N 2pz         -0.00000  -0.40405
1 N 3px          0.04820  -0.00000
1 N 3py          0.08730   0.00000
1 N 3pz         -0.00000   0.19099
1 N 4px         -0.01321   0.00000
1 N 4py         -0.02393  -0.00000
1 N 4pz         -0.00000  -0.00758
1 N 3dxy         0.00000  -0.00000
1 N 3dyz         0.03179  -0.00000
1 N 3dz^2        0.00000   0.02600
1 N 3dxz         0.01755   0.00000
1 N 3dx2-y2      0.00000  -0.00000
1 N 4dxy         0.00000   0.00000
1 N 4dyz         0.03506   0.00000
1 N 4dz^2        0.00000   0.06309
1 N 4dxz         0.01936   0.00000
1 N 4dx2-y2     -0.00000   0.00000
1 N 4f-3         0.00000  -0.00000
1 N 4f-2        -0.00000  -0.00000
1 N 4f-1         0.02760   0.00000
1 N 4f+0        -0.00000   0.04854
1 N 4f+1         0.01524  -0.00000
1 N 4f+2         0.00000   0.00000
1 N 4f+3         0.00000   0.00000
<CAS-nat-orb|mo-hf>  4      6        0.99921675
<CAS-nat-orb|mo-hf>  5      3       -0.79949455
<CAS-nat-orb|mo-hf>  5      7        0.59998845
<CAS-nat-orb|mo-hf>  6      4        0.99994136
<CAS-nat-orb|mo-hf>  7      5        0.99994136
<CAS-nat-orb|mo-hf>  8      8        0.71771827
<CAS-nat-orb|mo-hf>  8      15       0.64088051
<CAS-nat-orb|mo-hf>  9      9        0.71771827
<CAS-nat-orb|mo-hf>  9      16       0.64088051
<CAS-nat-orb|mo-hf>  10     22       0.59936714
<CAS-nat-orb|mo-hf>  10     30      -0.72737331
Sr    (-1)',   E = -0.04441494978005
Si    (+1)',   E = -0.00168489197729
Sijrs (0)  ,   E = -0.02003456591703
Sijr  (+1) ,   E = -0.00375469575906
Srsi  (-1) ,   E = -0.04293079516138
Srs   (-2) ,   E = -0.10103224317356
Sij   (+2) ,   E = -0.00143464111111
Sir   (0)' ,   E = -0.02521250695816
Nevpt2 Energy = -0.240499289837643
Starting initial orbital calculation.

Starting MOLCAS:
/public/home/xzzeng/soft/OpenMolcas/build/pymolcas -b 1 -f
MOLCAS environment:
MOLCAS_PROJECT:  n2
MOLCAS_MEM:      12000
WorkDir:         /public/home/xzzeng/work/HQC/N2/cc-pvtz/NO/PES/entropy/1.0/results/scratch
MOLCAS_NPROCS:   1
OMP_NUM_THREADS: 1
QCMaquis_CPU:    1
Initial orbitals finished.
Starting calculation.

Starting MOLCAS:
/public/home/xzzeng/soft/OpenMolcas/build/pymolcas -b 1 -f
MOLCAS environment:
MOLCAS_PROJECT:  n2
MOLCAS_MEM:      12000
WorkDir:         /public/home/xzzeng/work/HQC/N2/cc-pvtz/NO/PES/entropy/1.0/results/scratch
MOLCAS_NPROCS:   1
OMP_NUM_THREADS: 1
QCMaquis_CPU:    1
Calculation finished.

*******************************************************************************************
*                                                                                         *
*                                 Active space search                                     *
*                                                                                         *
*******************************************************************************************
Start active space search for provided set of 8 orbitals and 10 electrons.
Maximal single orbital entropy: 0.1337054960785993
Found plateau, including 5 orbitals.
Found smaller active space.
Selected active space CAS(e, o): (6, 5)
Orbital indices:     [3, 4, 5, 7, 8]
Orbital occupations: [2, 2, 2, 0, 0]


******** <class 'pyscf.scf.hf.RHF'> ********
method = RHF
initial guess = minao
damping factor = 0
level_shift factor = 0
DIIS = <class 'pyscf.scf.diis.CDIIS'>
diis_start_cycle = 1
diis_space = 8
diis_damp = 0
SCF conv_tol = 1e-09
SCF conv_tol_grad = None
SCF max_cycles = 50
direct_scf = True
direct_scf_tol = 1e-13
chkfile to save SCF result = /tmp/tmpvyj7rc4g
max_memory 4000 MB (current use 158 MB)
Set gradient conv threshold to 3.16228e-05
Initial guess from minao.
init E= -109.372344307318
  HOMO = -0.410032418488985  LUMO = 0.101855560827041
cycle= 1 E= -108.954513271837  delta_E= 0.418  |g|= 0.238  |ddm|= 1.38
  HOMO = -0.660620785486178  LUMO = 0.187221122866957
cycle= 2 E= -108.967135237935  delta_E= -0.0126  |g|= 0.0708  |ddm|= 0.154
  HOMO = -0.635280318906876  LUMO = 0.213648237356188
cycle= 3 E= -108.967961330243  delta_E= -0.000826  |g|= 0.0134  |ddm|= 0.0345
  HOMO = -0.640415986330407  LUMO = 0.212233867780172
cycle= 4 E= -108.968014446581  delta_E= -5.31e-05  |g|= 0.0014  |ddm|= 0.0124
  HOMO = -0.640802131084615  LUMO = 0.212082421480335
cycle= 5 E= -108.968015001326  delta_E= -5.55e-07  |g|= 0.000151  |ddm|= 0.00147
  HOMO = -0.640848002388397  LUMO = 0.212078538652685
cycle= 6 E= -108.968015011398  delta_E= -1.01e-08  |g|= 3.3e-05  |ddm|= 0.000237
  HOMO = -0.640847012824942  LUMO = 0.212083751313157
cycle= 7 E= -108.968015011916  delta_E= -5.18e-10  |g|= 3.37e-06  |ddm|= 9.33e-05
  HOMO = -0.640847671678762  LUMO = 0.212083226554054
Extra cycle  E= -108.96801501192  delta_E= -3.81e-12  |g|= 9.05e-07  |ddm|= 1.12e-05
converged SCF energy = -108.96801501192

******** CASCI flags ********
CAS (3e+3e, 5o), ncore = 4, nvir = 51
natorb = False
canonicalization = True
sorting_mo_energy = False
max_memory 4000 (MB)
******** <class 'pyscf.fci.direct_spin1.FCISolver'> ********
max. cycles = 200
conv_tol = 1e-08
davidson only = False
linear dependence = 1e-12
level shift = 0.001
max iter space = 12
max_memory 4000 MB
nroots = 1
pspace_size = 400
spin = None
Density matrix diagonal elements [1.99075346 1.97308703 1.97308703 0.03153624 0.03153624]
CASCI converged
CASCI E = -109.012333233307  E(CI) = -11.9726344218227  S^2 = 0.0000000

******** <class 'pyscf.mcscf.mc1step.CASSCF'> ********
CAS (3e+3e, 5o), ncore = 4, nvir = 51
max_cycle_macro = 50
max_cycle_micro = 4
conv_tol = 1e-07
conv_tol_grad = None
orbital rotation max_stepsize = 0.02
orbital rotation threshold for CI restart = 0.01
augmented hessian ah_max_cycle = 30
augmented hessian ah_conv_tol = 1e-12
augmented hessian ah_linear dependence = 1e-14
augmented hessian ah_level shift = 1e-08
augmented hessian ah_start_tol = 2.5
augmented hessian ah_start_cycle = 3
augmented hessian ah_grad_trust_region = 3
kf_trust_region = 3
kf_interval = 4
ci_response_space = 4
ci_grad_trust_region = 3
with_dep4 0
natorb = False
canonicalization = True
sorting_mo_energy = False
ao2mo_level = 2
chkfile = /tmp/tmpvyj7rc4g
max_memory 4000 MB (current use 162 MB)
internal_rotation = False
******** <class 'pyscf.fci.direct_spin1.FCISolver'> ********
max. cycles = 50
conv_tol = 1e-08
davidson only = False
linear dependence = 1e-12
level shift = 0.001
max iter space = 12
max_memory 4000 MB
nroots = 1
pspace_size = 400
spin = None
CASCI E = -109.012333233307  S^2 = 0.0000000
Set conv_tol_grad to 0.000316228
macro iter   1 ( 21 JK    4 micro), CASSCF E = -109.049914285140  dE = -3.75810518e-02  S^2 = 0.0000000
               |grad[o]|=0.0564  |grad[c]|=0.0357  |ddm|=0.0385  |maxRot[o]|=0.312
macro iter   2 ( 11 JK    4 micro), CASSCF E = -109.052098862708  dE = -2.18457757e-03  S^2 = 0.0000000
               |grad[o]|=0.0249  |grad[c]|=0.00269  |ddm|=0.00282  |maxRot[o]|=0.0911
macro iter   3 (  3 JK    1 micro), CASSCF E = -109.052098911142  dE = -4.84340745e-08  S^2 = 0.0000000
               |grad[o]|=0.000218  |grad[c]|=4.96e-05  |ddm|=1.76e-05  |maxRot[o]|=0.00043
1-step CASSCF converged in   3 macro ( 35 JK   9 micro) steps
CASSCF canonicalization
Density matrix diagonal elements [1.99020366 1.95424188 1.95424188 0.05065629 0.05065629]
CASSCF energy = -109.052098911142
CASCI E = -109.052098911142  E(CI) = -12.0372054220684  S^2 = 0.0000000
Natural occ [1.99020366 1.95424188 1.95424188 0.05065629 0.05065629]
Natural orbital (expansion on meta-Lowdin AOs) in CAS space
               #1        #2        #3        #4        #5       
0 N 1s           0.01910   0.00000   0.00000  -0.00000  -0.00000
0 N 2s           0.51020   0.00000   0.00000   0.00000  -0.00000
0 N 3s          -0.00855   0.00000   0.00000  -0.00000   0.00000
0 N 4s          -0.00557   0.00000  -0.00000   0.00000  -0.00000
0 N 2px         -0.00000   0.58591   0.38986  -0.52855  -0.46454
0 N 2py          0.00000   0.38986  -0.58591   0.46454  -0.52855
0 N 2pz         -0.48896  -0.00000   0.00000  -0.00000  -0.00000
0 N 3px         -0.00000  -0.02995  -0.01993   0.04755   0.04179
0 N 3py          0.00000  -0.01993   0.02995  -0.04179   0.04755
0 N 3pz         -0.00605   0.00000  -0.00000   0.00000  -0.00000
0 N 4px          0.00000  -0.00700  -0.00466   0.00129   0.00113
0 N 4py         -0.00000  -0.00466   0.00700  -0.00113   0.00129
0 N 4pz         -0.00471   0.00000  -0.00000   0.00000  -0.00000
0 N 3dxy        -0.00000   0.00000  -0.00000   0.00000  -0.00000
0 N 3dyz         0.00000   0.03088  -0.04640   0.01071  -0.01219
0 N 3dz^2       -0.00845  -0.00000   0.00000   0.00000  -0.00000
0 N 3dxz        -0.00000   0.04640   0.03088  -0.01219  -0.01071
0 N 3dx2-y2     -0.00000   0.00000   0.00000  -0.00000  -0.00000
0 N 4dxy         0.00000   0.00000  -0.00000   0.00000  -0.00000
0 N 4dyz         0.00000  -0.00371   0.00558   0.01276  -0.01452
0 N 4dz^2       -0.00150   0.00000  -0.00000   0.00000  -0.00000
0 N 4dxz        -0.00000  -0.00558  -0.00371  -0.01452  -0.01276
0 N 4dx2-y2      0.00000   0.00000   0.00000  -0.00000  -0.00000
0 N 4f-3         0.00000  -0.00000   0.00000   0.00000   0.00000
0 N 4f-2        -0.00000  -0.00000   0.00000  -0.00000  -0.00000
0 N 4f-1         0.00000   0.00784  -0.01178  -0.00915   0.01041
0 N 4f+0         0.00370  -0.00000   0.00000  -0.00000  -0.00000
0 N 4f+1        -0.00000   0.01178   0.00784   0.01041   0.00915
0 N 4f+2        -0.00000  -0.00000   0.00000   0.00000   0.00000
0 N 4f+3        -0.00000   0.00000   0.00000  -0.00000   0.00000
1 N 1s          -0.01910   0.00000  -0.00000  -0.00000   0.00000
1 N 2s          -0.51020  -0.00000  -0.00000  -0.00000   0.00000
1 N 3s           0.00855  -0.00000  -0.00000   0.00000  -0.00000
1 N 4s           0.00557  -0.00000   0.00000  -0.00000   0.00000
1 N 2px         -0.00000   0.58591   0.38986   0.52855   0.46454
1 N 2py         -0.00000   0.38986  -0.58591  -0.46454   0.52855
1 N 2pz         -0.48896  -0.00000   0.00000  -0.00000   0.00000
1 N 3px          0.00000  -0.02995  -0.01993  -0.04755  -0.04179
1 N 3py         -0.00000  -0.01993   0.02995   0.04179  -0.04755
1 N 3pz         -0.00605  -0.00000  -0.00000   0.00000  -0.00000
1 N 4px         -0.00000  -0.00700  -0.00466  -0.00129  -0.00113
1 N 4py          0.00000  -0.00466   0.00700   0.00113  -0.00129
1 N 4pz         -0.00471   0.00000  -0.00000   0.00000   0.00000
1 N 3dxy        -0.00000   0.00000  -0.00000   0.00000  -0.00000
1 N 3dyz         0.00000  -0.03088   0.04640   0.01071  -0.01219
1 N 3dz^2        0.00845   0.00000  -0.00000   0.00000  -0.00000
1 N 3dxz        -0.00000  -0.04640  -0.03088  -0.01219  -0.01071
1 N 3dx2-y2     -0.00000   0.00000   0.00000   0.00000   0.00000
1 N 4dxy         0.00000   0.00000  -0.00000   0.00000  -0.00000
1 N 4dyz         0.00000   0.00371  -0.00558   0.01276  -0.01452
1 N 4dz^2        0.00150   0.00000   0.00000  -0.00000  -0.00000
1 N 4dxz        -0.00000   0.00558   0.00371  -0.01452  -0.01276
1 N 4dx2-y2     -0.00000   0.00000  -0.00000  -0.00000   0.00000
1 N 4f-3         0.00000  -0.00000   0.00000  -0.00000  -0.00000
1 N 4f-2         0.00000   0.00000  -0.00000  -0.00000  -0.00000
1 N 4f-1        -0.00000   0.00784  -0.01178   0.00915  -0.01041
1 N 4f+0         0.00370  -0.00000   0.00000  -0.00000   0.00000
1 N 4f+1         0.00000   0.01178   0.00784  -0.01041  -0.00915
1 N 4f+2         0.00000   0.00000  -0.00000  -0.00000   0.00000
1 N 4f+3        -0.00000   0.00000   0.00000   0.00000  -0.00000
<CAS-nat-orb|mo-hf>  5      4        0.99970285
<CAS-nat-orb|mo-hf>  6      5        0.80836663
<CAS-nat-orb|mo-hf>  6      6        0.58849479
<CAS-nat-orb|mo-hf>  7      5       -0.58849479
<CAS-nat-orb|mo-hf>  7      6        0.80836663
<CAS-nat-orb|mo-hf>  8      8       -0.50517260
<CAS-nat-orb|mo-hf>  8      9        0.71847887
<CAS-nat-orb|mo-hf>  8      15      -0.42428933
<CAS-nat-orb|mo-hf>  9      8        0.71847887
<CAS-nat-orb|mo-hf>  9      9        0.50517260
<CAS-nat-orb|mo-hf>  9      16       0.42428933
Sr    (-1)',   E = -0.03308944965539
Si    (+1)',   E = -0.00046698024958
Sijrs (0)  ,   E = -0.05225949939945
Sijr  (+1) ,   E = -0.00402052821521
Srsi  (-1) ,   E = -0.08568749938839
Srs   (-2) ,   E = -0.05498822676842
Sij   (+2) ,   E = -0.00107534354732
Sir   (0)' ,   E = -0.05428666794390
Nevpt2 Energy = -0.285874195167665
Starting initial orbital calculation.

Starting MOLCAS:
/public/home/xzzeng/soft/OpenMolcas/build/pymolcas -b 1 -f
MOLCAS environment:
MOLCAS_PROJECT:  n2
MOLCAS_MEM:      12000
WorkDir:         /public/home/xzzeng/work/HQC/N2/cc-pvtz/NO/PES/entropy/1.2/results/scratch
MOLCAS_NPROCS:   1
OMP_NUM_THREADS: 1
QCMaquis_CPU:    1
Initial orbitals finished.
Starting calculation.

Starting MOLCAS:
/public/home/xzzeng/soft/OpenMolcas/build/pymolcas -b 1 -f
MOLCAS environment:
MOLCAS_PROJECT:  n2
MOLCAS_MEM:      12000
WorkDir:         /public/home/xzzeng/work/HQC/N2/cc-pvtz/NO/PES/entropy/1.2/results/scratch
MOLCAS_NPROCS:   1
OMP_NUM_THREADS: 1
QCMaquis_CPU:    1
Calculation finished.

*******************************************************************************************
*                                                                                         *
*                                 Active space search                                     *
*                                                                                         *
*******************************************************************************************
Start active space search for provided set of 8 orbitals and 10 electrons.
Maximal single orbital entropy: 0.25449685684770995
Found plateau, including 4 orbitals.
Found smaller active space.
Selected active space CAS(e, o): (4, 4)
Orbital indices:     [5, 6, 7, 8]
Orbital occupations: [2, 2, 0, 0]


******** <class 'pyscf.scf.hf.RHF'> ********
method = RHF
initial guess = minao
damping factor = 0
level_shift factor = 0
DIIS = <class 'pyscf.scf.diis.CDIIS'>
diis_start_cycle = 1
diis_space = 8
diis_damp = 0
SCF conv_tol = 1e-09
SCF conv_tol_grad = None
SCF max_cycles = 50
direct_scf = True
direct_scf_tol = 1e-13
chkfile to save SCF result = /tmp/tmpesivrh6r
max_memory 4000 MB (current use 162 MB)
Set gradient conv threshold to 3.16228e-05
Initial guess from minao.
init E= -108.683283530877
  HOMO = -0.364976187675585  LUMO = 0.0275629497819018
cycle= 1 E= -108.913684909058  delta_E= -0.23  |g|= 0.332  |ddm|= 1.28
  HOMO = -0.625777709989825  LUMO = 0.0655254375608601
cycle= 2 E= -108.937698380264  delta_E= -0.024  |g|= 0.0974  |ddm|= 0.228
  HOMO = -0.57192850995278  LUMO = 0.113282312984665
cycle= 3 E= -108.939515917151  delta_E= -0.00182  |g|= 0.0175  |ddm|= 0.049
  HOMO = -0.571349363807395  LUMO = 0.114646027847675
cycle= 4 E= -108.939641581098  delta_E= -0.000126  |g|= 0.0022  |ddm|= 0.0189
  HOMO = -0.571903736614697  LUMO = 0.114239535136575
cycle= 5 E= -108.939642725412  delta_E= -1.14e-06  |g|= 0.000143  |ddm|= 0.00181
  HOMO = -0.571909229616739  LUMO = 0.114224069443706
cycle= 6 E= -108.939642732437  delta_E= -7.02e-09  |g|= 3.07e-05  |ddm|= 0.000146
  HOMO = -0.571901368044448  LUMO = 0.114230982086689
cycle= 7 E= -108.939642732822  delta_E= -3.85e-10  |g|= 3.88e-06  |ddm|= 4.78e-05
  HOMO = -0.571901558097435  LUMO = 0.114230519293309
Extra cycle  E= -108.939642732828  delta_E= -5.91e-12  |g|= 1.11e-06  |ddm|= 6.52e-06
converged SCF energy = -108.939642732828

******** CASCI flags ********
CAS (2e+2e, 4o), ncore = 5, nvir = 51
natorb = False
canonicalization = True
sorting_mo_energy = False
max_memory 4000 (MB)
******** <class 'pyscf.fci.direct_spin1.FCISolver'> ********
max. cycles = 200
conv_tol = 1e-08
davidson only = False
linear dependence = 1e-12
level shift = 0.001
max iter space = 12
max_memory 4000 MB
nroots = 1
pspace_size = 400
spin = None
Density matrix diagonal elements [1.92997089 1.92997089 0.07002911 0.07002911]
CASCI converged
CASCI E = -109.014839435941  E(CI) = -5.44260203181678  S^2 = 0.0000000

******** <class 'pyscf.mcscf.mc1step.CASSCF'> ********
CAS (2e+2e, 4o), ncore = 5, nvir = 51
max_cycle_macro = 50
max_cycle_micro = 4
conv_tol = 1e-07
conv_tol_grad = None
orbital rotation max_stepsize = 0.02
orbital rotation threshold for CI restart = 0.01
augmented hessian ah_max_cycle = 30
augmented hessian ah_conv_tol = 1e-12
augmented hessian ah_linear dependence = 1e-14
augmented hessian ah_level shift = 1e-08
augmented hessian ah_start_tol = 2.5
augmented hessian ah_start_cycle = 3
augmented hessian ah_grad_trust_region = 3
kf_trust_region = 3
kf_interval = 4
ci_response_space = 4
ci_grad_trust_region = 3
with_dep4 0
natorb = False
canonicalization = True
sorting_mo_energy = False
ao2mo_level = 2
chkfile = /tmp/tmpesivrh6r
max_memory 4000 MB (current use 162 MB)
internal_rotation = False
******** <class 'pyscf.fci.direct_spin1.FCISolver'> ********
max. cycles = 50
conv_tol = 1e-08
davidson only = False
linear dependence = 1e-12
level shift = 0.001
max iter space = 12
max_memory 4000 MB
nroots = 1
pspace_size = 400
spin = None
CASCI E = -109.014839435941  S^2 = 0.0000000
Set conv_tol_grad to 0.000316228
macro iter   1 ( 21 JK    4 micro), CASSCF E = -109.048484951235  dE = -3.36455153e-02  S^2 = 0.0000000
               |grad[o]|=0.0824  |grad[c]|=0.0328  |ddm|=0.0411  |maxRot[o]|=0.314
macro iter   2 (  9 JK    4 micro), CASSCF E = -109.048646829515  dE = -1.61878280e-04  S^2 = 0.0000000
               |grad[o]|=0.0126  |grad[c]|=0.000163  |ddm|=0.00146  |maxRot[o]|=0.0212
macro iter   3 (  1 JK    1 micro), CASSCF E = -109.048646829911  dE = -3.95687039e-10  S^2 = 0.0000000
               |grad[o]|=1.37e-05  |grad[c]|=1.67e-05  |ddm|=1.65e-05  |maxRot[o]|=    0
1-step CASSCF converged in   3 macro ( 31 JK   9 micro) steps
CASSCF canonicalization
Density matrix diagonal elements [1.91021144 1.91021144 0.08978856 0.08978856]
CASSCF energy = -109.048646829911
CASCI E = -109.048646829911  E(CI) = -5.49618254392057  S^2 = 0.0000000
Natural occ [1.91021144 1.91021144 0.08978856 0.08978856]
Natural orbital (expansion on meta-Lowdin AOs) in CAS space
               #1        #2        #3        #4       
0 N 1s          -0.00000   0.00000  -0.00000  -0.00000
0 N 2s          -0.00000  -0.00000   0.00000   0.00000
0 N 3s           0.00000  -0.00000  -0.00000  -0.00000
0 N 4s          -0.00000   0.00000   0.00000   0.00000
0 N 2px          0.37446   0.59764   0.47620  -0.51982
0 N 2py          0.59764  -0.37446  -0.51982  -0.47620
0 N 2pz          0.00000  -0.00000   0.00000   0.00000
0 N 3px          0.00089   0.00143   0.03312  -0.03615
0 N 3py          0.00143  -0.00089  -0.03615  -0.03312
0 N 3pz         -0.00000   0.00000  -0.00000  -0.00000
0 N 4px         -0.00353  -0.00564  -0.00027   0.00029
0 N 4py         -0.00564   0.00353   0.00029   0.00027
0 N 4pz         -0.00000   0.00000  -0.00000  -0.00000
0 N 3dxy        -0.00000  -0.00000  -0.00000   0.00000
0 N 3dyz         0.04188  -0.02624  -0.01495  -0.01370
0 N 3dz^2        0.00000  -0.00000  -0.00000  -0.00000
0 N 3dxz         0.02624   0.04188   0.01370  -0.01495
0 N 3dx2-y2      0.00000  -0.00000  -0.00000  -0.00000
0 N 4dxy        -0.00000  -0.00000   0.00000  -0.00000
0 N 4dyz         0.00243  -0.00152  -0.00635  -0.00582
0 N 4dz^2        0.00000  -0.00000   0.00000   0.00000
0 N 4dxz         0.00152   0.00243   0.00582  -0.00635
0 N 4dx2-y2      0.00000  -0.00000   0.00000   0.00000
0 N 4f-3         0.00000  -0.00000  -0.00000  -0.00000
0 N 4f-2        -0.00000  -0.00000  -0.00000   0.00000
0 N 4f-1         0.00883  -0.00553   0.00854   0.00783
0 N 4f+0         0.00000  -0.00000  -0.00000  -0.00000
0 N 4f+1         0.00553   0.00883  -0.00783   0.00854
0 N 4f+2         0.00000  -0.00000  -0.00000  -0.00000
0 N 4f+3        -0.00000  -0.00000  -0.00000   0.00000
1 N 1s          -0.00000   0.00000   0.00000   0.00000
1 N 2s          -0.00000   0.00000  -0.00000  -0.00000
1 N 3s           0.00000  -0.00000   0.00000   0.00000
1 N 4s          -0.00000   0.00000  -0.00000   0.00000
1 N 2px          0.37446   0.59764  -0.47620   0.51982
1 N 2py          0.59764  -0.37446   0.51982   0.47620
1 N 2pz         -0.00000   0.00000   0.00000   0.00000
1 N 3px          0.00089   0.00143  -0.03312   0.03615
1 N 3py          0.00143  -0.00089   0.03615   0.03312
1 N 3pz          0.00000  -0.00000  -0.00000  -0.00000
1 N 4px         -0.00353  -0.00564   0.00027  -0.00029
1 N 4py         -0.00564   0.00353  -0.00029  -0.00027
1 N 4pz          0.00000   0.00000  -0.00000  -0.00000
1 N 3dxy        -0.00000  -0.00000   0.00000  -0.00000
1 N 3dyz        -0.04188   0.02624  -0.01495  -0.01370
1 N 3dz^2        0.00000  -0.00000   0.00000   0.00000
1 N 3dxz        -0.02624  -0.04188   0.01370  -0.01495
1 N 3dx2-y2      0.00000  -0.00000   0.00000   0.00000
1 N 4dxy        -0.00000  -0.00000  -0.00000   0.00000
1 N 4dyz        -0.00243   0.00152  -0.00635  -0.00582
1 N 4dz^2        0.00000  -0.00000  -0.00000  -0.00000
1 N 4dxz        -0.00152  -0.00243   0.00582  -0.00635
1 N 4dx2-y2      0.00000  -0.00000  -0.00000  -0.00000
1 N 4f-3         0.00000  -0.00000   0.00000   0.00000
1 N 4f-2         0.00000   0.00000  -0.00000   0.00000
1 N 4f-1         0.00883  -0.00553  -0.00854  -0.00783
1 N 4f+0        -0.00000   0.00000  -0.00000  -0.00000
1 N 4f+1         0.00553   0.00883   0.00783  -0.00854
1 N 4f+2        -0.00000   0.00000  -0.00000  -0.00000
1 N 4f+3        -0.00000  -0.00000   0.00000  -0.00000
<CAS-nat-orb|mo-hf>  6      6        0.99826950
<CAS-nat-orb|mo-hf>  7      7        0.99826950
<CAS-nat-orb|mo-hf>  8      9        0.91958833
<CAS-nat-orb|mo-hf>  9      8        0.91958833
Sr    (-1)',   E = -0.00409612138984
Si    (+1)',   E = -0.00000000000000
Sijrs (0)  ,   E = -0.08888514854699
Sijr  (+1) ,   E = -0.01576977600724
Srsi  (-1) ,   E = -0.08014079585552
Srs   (-2) ,   E = -0.02554959247198
Sij   (+2) ,   E = -0.00509977128057
Sir   (0)' ,   E = -0.07997576939808
Nevpt2 Energy = -0.299516974950224
Starting initial orbital calculation.

Starting MOLCAS:
/public/home/xzzeng/soft/OpenMolcas/build/pymolcas -b 1 -f
MOLCAS environment:
MOLCAS_PROJECT:  n2
MOLCAS_MEM:      12000
WorkDir:         /public/home/xzzeng/work/HQC/N2/cc-pvtz/NO/PES/entropy/1.4/results/scratch
MOLCAS_NPROCS:   1
OMP_NUM_THREADS: 1
QCMaquis_CPU:    1
Initial orbitals finished.
Starting calculation.

Starting MOLCAS:
/public/home/xzzeng/soft/OpenMolcas/build/pymolcas -b 1 -f
MOLCAS environment:
MOLCAS_PROJECT:  n2
MOLCAS_MEM:      12000
WorkDir:         /public/home/xzzeng/work/HQC/N2/cc-pvtz/NO/PES/entropy/1.4/results/scratch
MOLCAS_NPROCS:   1
OMP_NUM_THREADS: 1
QCMaquis_CPU:    1
Calculation finished.

*******************************************************************************************
*                                                                                         *
*                                 Active space search                                     *
*                                                                                         *
*******************************************************************************************
Start active space search for provided set of 8 orbitals and 10 electrons.
Maximal single orbital entropy: 0.4019654647407195
Found plateau, including 8 orbitals.
Found smaller active space.
Selected active space CAS(e, o): (10, 8)
Orbital indices:     [2, 3, 4, 5, 6, 7, 8, 9]
Orbital occupations: [2, 2, 2, 2, 2, 0, 0, 0]


******** <class 'pyscf.scf.hf.RHF'> ********
method = RHF
initial guess = minao
damping factor = 0
level_shift factor = 0
DIIS = <class 'pyscf.scf.diis.CDIIS'>
diis_start_cycle = 1
diis_space = 8
diis_damp = 0
SCF conv_tol = 1e-09
SCF conv_tol_grad = None
SCF max_cycles = 50
direct_scf = True
direct_scf_tol = 1e-13
chkfile to save SCF result = /tmp/tmp_weo5izv
max_memory 4000 MB (current use 162 MB)
Set gradient conv threshold to 3.16228e-05
Initial guess from minao.
init E= -108.212385632068
  HOMO = -0.326827159600828  LUMO = -0.028476257353158
cycle= 1 E= -108.754924895671  delta_E= -0.543  |g|= 0.363  |ddm|= 1.22
  HOMO = -0.568272571257728  LUMO = -0.0211363274259068
cycle= 2 E= -108.783901084361  delta_E= -0.029  |g|= 0.103  |ddm|= 0.274
  HOMO = -0.511153726516761  LUMO = 0.035681697804861
cycle= 3 E= -108.786217200359  delta_E= -0.00232  |g|= 0.0201  |ddm|= 0.054
  HOMO = -0.510198037029117  LUMO = 0.0379714214320109
cycle= 4 E= -108.786412067611  delta_E= -0.000195  |g|= 0.00268  |ddm|= 0.0232
  HOMO = -0.511005183898791  LUMO = 0.0372751378051645
cycle= 5 E= -108.786413859641  delta_E= -1.79e-06  |g|= 0.000129  |ddm|= 0.00212
  HOMO = -0.510998687988089  LUMO = 0.0372749474879126
cycle= 6 E= -108.786413864176  delta_E= -4.54e-09  |g|= 2.28e-05  |ddm|= 0.000106
  HOMO = -0.510995132327974  LUMO = 0.0372803565045404
cycle= 7 E= -108.786413864303  delta_E= -1.27e-10  |g|= 2.67e-06  |ddm|= 2.04e-05
  HOMO = -0.510995027746668  LUMO = 0.0372804866714584
Extra cycle  E= -108.786413864306  delta_E= -2.79e-12  |g|= 7.82e-07  |ddm|= 2.84e-06
converged SCF energy = -108.786413864306

******** CASCI flags ********
CAS (5e+5e, 8o), ncore = 2, nvir = 50
natorb = False
canonicalization = True
sorting_mo_energy = False
max_memory 4000 (MB)
******** <class 'pyscf.fci.direct_spin1.FCISolver'> ********
max. cycles = 200
conv_tol = 1e-08
davidson only = False
linear dependence = 1e-12
level shift = 0.001
max iter space = 12
max_memory 4000 MB
nroots = 1
pspace_size = 400
spin = None
Density matrix diagonal elements [1.99285529 1.98898825 1.98486862 1.86825761 1.86825761 0.13919335
 0.13919335 0.01838593]
CASCI converged
CASCI E = -108.938236122371  E(CI) = -28.9206727784703  S^2 = 0.0000000

******** <class 'pyscf.mcscf.mc1step.CASSCF'> ********
CAS (5e+5e, 8o), ncore = 2, nvir = 50
max_cycle_macro = 50
max_cycle_micro = 4
conv_tol = 1e-07
conv_tol_grad = None
orbital rotation max_stepsize = 0.02
orbital rotation threshold for CI restart = 0.01
augmented hessian ah_max_cycle = 30
augmented hessian ah_conv_tol = 1e-12
augmented hessian ah_linear dependence = 1e-14
augmented hessian ah_level shift = 1e-08
augmented hessian ah_start_tol = 2.5
augmented hessian ah_start_cycle = 3
augmented hessian ah_grad_trust_region = 3
kf_trust_region = 3
kf_interval = 4
ci_response_space = 4
ci_grad_trust_region = 3
with_dep4 0
natorb = False
canonicalization = True
sorting_mo_energy = False
ao2mo_level = 2
chkfile = /tmp/tmp_weo5izv
max_memory 4000 MB (current use 162 MB)
internal_rotation = False
******** <class 'pyscf.fci.direct_spin1.FCISolver'> ********
max. cycles = 50
conv_tol = 1e-08
davidson only = False
linear dependence = 1e-12
level shift = 0.001
max iter space = 12
max_memory 4000 MB
nroots = 1
pspace_size = 400
spin = None
CASCI E = -108.938236122371  S^2 = 0.0000000
Set conv_tol_grad to 0.000316228
macro iter   1 ( 21 JK    4 micro), CASSCF E = -108.987933830062  dE = -4.96977077e-02  S^2 = 0.0000000
               |grad[o]|=0.121  |grad[c]|=0.0466  |ddm|=0.0391  |maxRot[o]|=0.314
macro iter   2 ( 21 JK    4 micro), CASSCF E = -109.014457568627  dE = -2.65237386e-02  S^2 = 0.0000000
               |grad[o]|=0.079  |grad[c]|=0.0248  |ddm|=0.0159  |maxRot[o]|=0.314
macro iter   3 ( 15 JK    4 micro), CASSCF E = -109.017079315084  dE = -2.62174646e-03  S^2 = 0.0000000
               |grad[o]|=0.0254  |grad[c]|=0.0031  |ddm|=0.0145  |maxRot[o]|=0.117
macro iter   4 (  7 JK    2 micro), CASSCF E = -109.017079526047  dE = -2.10962952e-07  S^2 = 0.0000000
               |grad[o]|=0.000357  |grad[c]|=2.33e-05  |ddm|=3.65e-05  |maxRot[o]|=0.00118
macro iter   5 (  1 JK    1 micro), CASSCF E = -109.017079526092  dE = -4.45226078e-11  S^2 = 0.0000000
               |grad[o]|=7.71e-06  |grad[c]|=1.2e-05  |ddm|=    0  |maxRot[o]|=    0
1-step CASSCF converged in   5 macro ( 65 JK  15 micro) steps
CASSCF canonicalization
Density matrix diagonal elements [1.98434587 1.9868162  1.96099101 1.86256871 1.86256871 0.14495518
 0.14495518 0.05279913]
CASSCF energy = -109.017079526092
CASCI E = -109.017079526092  E(CI) = -29.0289210671665  S^2 = 0.0000000
Natural occ [1.99419392 1.98716187 1.95114296 1.86256871 1.86256871 0.14495518
 0.14495518 0.05245347]
Natural orbital (expansion on meta-Lowdin AOs) in CAS space
               #1        #2        #3        #4        #5       
0 N 1s           0.02919   0.01733  -0.00061  -0.00000  -0.00000
0 N 2s           0.70308   0.62965   0.06380  -0.00000  -0.00000
0 N 3s           0.00524  -0.00342   0.07028   0.00000  -0.00000
0 N 4s          -0.00198  -0.00321  -0.00603   0.00000  -0.00000
0 N 2px          0.00000   0.00000   0.00000   0.70521  -0.02080
0 N 2py         -0.00000   0.00000   0.00000   0.02080   0.70521
0 N 2pz         -0.06624  -0.32111   0.69829   0.00000   0.00000
0 N 3px          0.00000  -0.00000  -0.00000  -0.01999   0.00059
0 N 3py          0.00000  -0.00000  -0.00000  -0.00059  -0.01999
0 N 3pz         -0.01671   0.00344  -0.02720  -0.00000   0.00000
0 N 4px         -0.00000   0.00000  -0.00000  -0.00237   0.00007
0 N 4py         -0.00000   0.00000   0.00000  -0.00007  -0.00237
0 N 4pz         -0.00263  -0.00337  -0.00836   0.00000  -0.00000
0 N 3dxy         0.00000  -0.00000   0.00000   0.00000  -0.00000
0 N 3dyz        -0.00000   0.00000   0.00000   0.00123   0.04164
0 N 3dz^2        0.01010  -0.00895   0.04775  -0.00000   0.00000
0 N 3dxz        -0.00000   0.00000   0.00000   0.04164  -0.00123
0 N 3dx2-y2     -0.00000   0.00000  -0.00000   0.00000  -0.00000
0 N 4dxy         0.00000  -0.00000  -0.00000  -0.00000   0.00000
0 N 4dyz        -0.00000   0.00000   0.00000   0.00021   0.00708
0 N 4dz^2        0.00221  -0.00023   0.00794  -0.00000   0.00000
0 N 4dxz        -0.00000   0.00000   0.00000   0.00708  -0.00021
0 N 4dx2-y2     -0.00000   0.00000  -0.00000   0.00000   0.00000
0 N 4f-3        -0.00000  -0.00000  -0.00000   0.00000  -0.00000
0 N 4f-2        -0.00000   0.00000  -0.00000   0.00000  -0.00000
0 N 4f-1        -0.00000   0.00000   0.00000   0.00022   0.00745
0 N 4f+0         0.00444   0.00162   0.01382  -0.00000   0.00000
0 N 4f+1        -0.00000   0.00000   0.00000   0.00745  -0.00022
0 N 4f+2        -0.00000   0.00000  -0.00000  -0.00000   0.00000
0 N 4f+3         0.00000   0.00000   0.00000   0.00000   0.00000
1 N 1s           0.02919  -0.01733  -0.00061   0.00000   0.00000
1 N 2s           0.70308  -0.62965   0.06380   0.00000   0.00000
1 N 3s           0.00524   0.00342   0.07028  -0.00000   0.00000
1 N 4s          -0.00198   0.00321  -0.00603  -0.00000   0.00000
1 N 2px          0.00000   0.00000  -0.00000   0.70521  -0.02080
1 N 2py          0.00000   0.00000  -0.00000   0.02080   0.70521
1 N 2pz          0.06624  -0.32111  -0.69829   0.00000   0.00000
1 N 3px         -0.00000  -0.00000   0.00000  -0.01999   0.00059
1 N 3py         -0.00000  -0.00000   0.00000  -0.00059  -0.01999
1 N 3pz          0.01671   0.00344   0.02720  -0.00000   0.00000
1 N 4px         -0.00000   0.00000  -0.00000  -0.00237   0.00007
1 N 4py          0.00000  -0.00000   0.00000  -0.00007  -0.00237
1 N 4pz          0.00263  -0.00337   0.00836   0.00000  -0.00000
1 N 3dxy        -0.00000   0.00000   0.00000  -0.00000  -0.00000
1 N 3dyz        -0.00000  -0.00000   0.00000  -0.00123  -0.04164
1 N 3dz^2        0.01010   0.00895   0.04775   0.00000  -0.00000
1 N 3dxz        -0.00000  -0.00000   0.00000  -0.04164   0.00123
1 N 3dx2-y2     -0.00000  -0.00000  -0.00000  -0.00000   0.00000
1 N 4dxy         0.00000   0.00000  -0.00000  -0.00000  -0.00000
1 N 4dyz        -0.00000  -0.00000   0.00000  -0.00021  -0.00708
1 N 4dz^2        0.00221   0.00023   0.00794   0.00000  -0.00000
1 N 4dxz        -0.00000  -0.00000   0.00000  -0.00708   0.00021
1 N 4dx2-y2     -0.00000   0.00000  -0.00000  -0.00000   0.00000
1 N 4f-3         0.00000  -0.00000  -0.00000   0.00000  -0.00000
1 N 4f-2        -0.00000   0.00000   0.00000   0.00000  -0.00000
1 N 4f-1         0.00000   0.00000  -0.00000   0.00022   0.00745
1 N 4f+0        -0.00444   0.00162  -0.01382  -0.00000   0.00000
1 N 4f+1         0.00000   0.00000  -0.00000   0.00745  -0.00022
1 N 4f+2         0.00000  -0.00000   0.00000   0.00000   0.00000
1 N 4f+3        -0.00000   0.00000  -0.00000   0.00000   0.00000
               #6        #7        #8       
0 N 1s          -0.00000  -0.00000   0.00010
0 N 2s           0.00000   0.00000  -0.31916
0 N 3s           0.00000   0.00000   0.04841
0 N 4s          -0.00000   0.00000  -0.00438
0 N 2px         -0.41807   0.56783   0.00000
0 N 2py         -0.56783  -0.41807  -0.00000
0 N 2pz          0.00000   0.00000  -0.62538
0 N 3px         -0.02960   0.04021   0.00000
0 N 3py         -0.04021  -0.02960  -0.00000
0 N 3pz         -0.00000  -0.00000   0.06641
0 N 4px          0.00159  -0.00216  -0.00000
0 N 4py          0.00216   0.00159   0.00000
0 N 4pz          0.00000   0.00000   0.00908
0 N 3dxy         0.00000  -0.00000  -0.00000
0 N 3dyz        -0.01250  -0.00920  -0.00000
0 N 3dz^2       -0.00000  -0.00000  -0.00981
0 N 3dxz        -0.00920   0.01250   0.00000
0 N 3dx2-y2     -0.00000  -0.00000   0.00000
0 N 4dxy        -0.00000   0.00000   0.00000
0 N 4dyz        -0.00535  -0.00394  -0.00000
0 N 4dz^2       -0.00000  -0.00000  -0.00766
0 N 4dxz        -0.00394   0.00535   0.00000
0 N 4dx2-y2     -0.00000   0.00000  -0.00000
0 N 4f-3         0.00000   0.00000   0.00000
0 N 4f-2         0.00000  -0.00000   0.00000
0 N 4f-1         0.00238   0.00175  -0.00000
0 N 4f+0        -0.00000  -0.00000   0.00471
0 N 4f+1         0.00175  -0.00238  -0.00000
0 N 4f+2        -0.00000  -0.00000   0.00000
0 N 4f+3        -0.00000   0.00000  -0.00000
1 N 1s           0.00000   0.00000  -0.00010
1 N 2s           0.00000  -0.00000   0.31916
1 N 3s          -0.00000  -0.00000  -0.04841
1 N 4s          -0.00000  -0.00000   0.00438
1 N 2px          0.41807  -0.56783  -0.00000
1 N 2py          0.56783   0.41807   0.00000
1 N 2pz          0.00000   0.00000  -0.62538
1 N 3px          0.02960  -0.04021  -0.00000
1 N 3py          0.04021   0.02960   0.00000
1 N 3pz         -0.00000  -0.00000   0.06641
1 N 4px         -0.00159   0.00216   0.00000
1 N 4py         -0.00216  -0.00159   0.00000
1 N 4pz          0.00000   0.00000   0.00908
1 N 3dxy         0.00000  -0.00000   0.00000
1 N 3dyz        -0.01250  -0.00920  -0.00000
1 N 3dz^2        0.00000   0.00000   0.00981
1 N 3dxz        -0.00920   0.01250   0.00000
1 N 3dx2-y2     -0.00000   0.00000   0.00000
1 N 4dxy        -0.00000   0.00000   0.00000
1 N 4dyz        -0.00535  -0.00394  -0.00000
1 N 4dz^2        0.00000   0.00000   0.00766
1 N 4dxz        -0.00394   0.00535   0.00000
1 N 4dx2-y2      0.00000   0.00000   0.00000
1 N 4f-3        -0.00000  -0.00000  -0.00000
1 N 4f-2         0.00000  -0.00000  -0.00000
1 N 4f-1        -0.00238  -0.00175   0.00000
1 N 4f+0        -0.00000  -0.00000   0.00471
1 N 4f+1        -0.00175   0.00238  -0.00000
1 N 4f+2         0.00000   0.00000  -0.00000
1 N 4f+3         0.00000  -0.00000  -0.00000
<CAS-nat-orb|mo-hf>  3      3        0.87771041
<CAS-nat-orb|mo-hf>  3      5       -0.47790909
<CAS-nat-orb|mo-hf>  4      4        0.99964919
<CAS-nat-orb|mo-hf>  5      3        0.47824791
<CAS-nat-orb|mo-hf>  5      5        0.87818072
<CAS-nat-orb|mo-hf>  6      7        0.98958363
<CAS-nat-orb|mo-hf>  7      6        0.98958363
<CAS-nat-orb|mo-hf>  8      8        0.71353002
<CAS-nat-orb|mo-hf>  8      9       -0.64223245
<CAS-nat-orb|mo-hf>  9      8        0.64223245
<CAS-nat-orb|mo-hf>  9      9        0.71353002
<CAS-nat-orb|mo-hf>  10     10       0.70365469
<CAS-nat-orb|mo-hf>  10     14       0.68103256
Sr    (-1)',   E = -0.09242683819070
Si    (+1)',   E = -0.00003813818908
Sijrs (0)  ,   E = -0.00989446420436
Sijr  (+1) ,   E = -0.00132563982254
Srsi  (-1) ,   E = -0.00775811080087
Srs   (-2) ,   E = -0.11283041452464
Sij   (+2) ,   E = -0.00009006893102
Sir   (0)' ,   E = -0.00309055061454
Nevpt2 Energy = -0.227454225277754
Starting initial orbital calculation.

Starting MOLCAS:
/public/home/xzzeng/soft/OpenMolcas/build/pymolcas -b 1 -f
MOLCAS environment:
MOLCAS_PROJECT:  n2
MOLCAS_MEM:      12000
WorkDir:         /public/home/xzzeng/work/HQC/N2/cc-pvtz/NO/PES/entropy/1.6/results/scratch
MOLCAS_NPROCS:   1
OMP_NUM_THREADS: 1
QCMaquis_CPU:    1
Initial orbitals finished.
Starting calculation.

Starting MOLCAS:
/public/home/xzzeng/soft/OpenMolcas/build/pymolcas -b 1 -f
MOLCAS environment:
MOLCAS_PROJECT:  n2
MOLCAS_MEM:      12000
WorkDir:         /public/home/xzzeng/work/HQC/N2/cc-pvtz/NO/PES/entropy/1.6/results/scratch
MOLCAS_NPROCS:   1
OMP_NUM_THREADS: 1
QCMaquis_CPU:    1
Calculation finished.

*******************************************************************************************
*                                                                                         *
*                                 Active space search                                     *
*                                                                                         *
*******************************************************************************************
Start active space search for provided set of 8 orbitals and 10 electrons.
Maximal single orbital entropy: 0.5902518780424812
Found plateau, including 6 orbitals.
Found smaller active space.
Selected active space CAS(e, o): (6, 6)
Orbital indices:     [4, 5, 6, 7, 8, 9]
Orbital occupations: [2, 2, 2, 0, 0, 0]


******** <class 'pyscf.scf.hf.RHF'> ********
method = RHF
initial guess = minao
damping factor = 0
level_shift factor = 0
DIIS = <class 'pyscf.scf.diis.CDIIS'>
diis_start_cycle = 1
diis_space = 8
diis_damp = 0
SCF conv_tol = 1e-09
SCF conv_tol_grad = None
SCF max_cycles = 50
direct_scf = True
direct_scf_tol = 1e-13
chkfile to save SCF result = /tmp/tmp8camv0pq
max_memory 4000 MB (current use 162 MB)
Set gradient conv threshold to 3.16228e-05
Initial guess from minao.
init E= -107.926746246721
  HOMO = -0.271483877588791  LUMO = -0.0691217912604338
cycle= 1 E= -108.590531247415  delta_E= -0.664  |g|= 0.362  |ddm|= 1.19
  HOMO = -0.521550572091739  LUMO = -0.0794883086025912
cycle= 2 E= -108.61948897794  delta_E= -0.029  |g|= 0.102  |ddm|= 0.298
  HOMO = -0.466690790454563  LUMO = -0.0215288639340611
cycle= 3 E= -108.621910234806  delta_E= -0.00242  |g|= 0.0209  |ddm|= 0.0543
  HOMO = -0.465931447540242  LUMO = -0.0192319741137058
cycle= 4 E= -108.622139041404  delta_E= -0.000229  |g|= 0.00297  |ddm|= 0.0246
  HOMO = -0.466820991608545  LUMO = -0.0200612262636136
cycle= 5 E= -108.622141673724  delta_E= -2.63e-06  |g|= 0.000196  |ddm|= 0.00254
  HOMO = -0.466788643410499  LUMO = -0.0200286499941273
cycle= 6 E= -108.622141683612  delta_E= -9.89e-09  |g|= 3.39e-05  |ddm|= 0.000165
  HOMO = -0.466786798758941  LUMO = -0.0200241600290428
cycle= 7 E= -108.622141684011  delta_E= -3.99e-10  |g|= 5.24e-06  |ddm|= 3.42e-05
  HOMO = -0.466786684762287  LUMO = -0.0200241272360956
Extra cycle  E= -108.622141684022  delta_E= -1.1e-11  |g|= 1.5e-06  |ddm|= 5.29e-06
converged SCF energy = -108.622141684022

******** CASCI flags ********
CAS (3e+3e, 6o), ncore = 4, nvir = 50
natorb = False
canonicalization = True
sorting_mo_energy = False
max_memory 4000 (MB)
******** <class 'pyscf.fci.direct_spin1.FCISolver'> ********
max. cycles = 200
conv_tol = 1e-08
davidson only = False
linear dependence = 1e-12
level shift = 0.001
max iter space = 12
max_memory 4000 MB
nroots = 1
pspace_size = 400
spin = None
Density matrix diagonal elements [1.94432182 1.75832392 1.75832392 0.24366765 0.24366765 0.05169505]
CASCI converged
CASCI E = -108.835291201209  E(CI) = -9.96841942520852  S^2 = 0.0000000

******** <class 'pyscf.mcscf.mc1step.CASSCF'> ********
CAS (3e+3e, 6o), ncore = 4, nvir = 50
max_cycle_macro = 50
max_cycle_micro = 4
conv_tol = 1e-07
conv_tol_grad = None
orbital rotation max_stepsize = 0.02
orbital rotation threshold for CI restart = 0.01
augmented hessian ah_max_cycle = 30
augmented hessian ah_conv_tol = 1e-12
augmented hessian ah_linear dependence = 1e-14
augmented hessian ah_level shift = 1e-08
augmented hessian ah_start_tol = 2.5
augmented hessian ah_start_cycle = 3
augmented hessian ah_grad_trust_region = 3
kf_trust_region = 3
kf_interval = 4
ci_response_space = 4
ci_grad_trust_region = 3
with_dep4 0
natorb = False
canonicalization = True
sorting_mo_energy = False
ao2mo_level = 2
chkfile = /tmp/tmp8camv0pq
max_memory 4000 MB (current use 162 MB)
internal_rotation = False
******** <class 'pyscf.fci.direct_spin1.FCISolver'> ********
max. cycles = 50
conv_tol = 1e-08
davidson only = False
linear dependence = 1e-12
level shift = 0.001
max iter space = 12
max_memory 4000 MB
nroots = 1
pspace_size = 400
spin = None
CASCI E = -108.835291201209  S^2 = 0.0000000
Set conv_tol_grad to 0.000316228
macro iter   1 ( 21 JK    4 micro), CASSCF E = -108.896682218977  dE = -6.13910178e-02  S^2 = 0.0000000
               |grad[o]|=0.156  |grad[c]|=0.0765  |ddm|=0.0449  |maxRot[o]|=0.301
macro iter   2 ( 13 JK    4 micro), CASSCF E = -108.905216005767  dE = -8.53378679e-03  S^2 = 0.0000001
               |grad[o]|=0.0681  |grad[c]|=0.0163  |ddm|=0.0215  |maxRot[o]|=0.137
macro iter   3 ( 12 JK    4 micro), CASSCF E = -108.905404364706  dE = -1.88358939e-04  S^2 = 0.0000000
               |grad[o]|=0.00893  |grad[c]|=0.000708  |ddm|=0.00244  |maxRot[o]|=0.0362
macro iter   4 (  6 JK    2 micro), CASSCF E = -108.905405674627  dE = -1.30992055e-06  S^2 = 0.0000000
               |grad[o]|=0.000727  |grad[c]|=0.000164  |ddm|=0.000148  |maxRot[o]|=0.00322
macro iter   5 (  1 JK    1 micro), CASSCF E = -108.905405679075  dE = -4.44796910e-09  S^2 = 0.0000000
               |grad[o]|=2.49e-05  |grad[c]|=7.57e-05  |ddm|=5.66e-05  |maxRot[o]|=    0
1-step CASSCF converged in   5 macro ( 53 JK  15 micro) steps
CASSCF canonicalization
Density matrix diagonal elements [1.90655336 1.73262099 1.73262099 0.2672155  0.2672155  0.09377368]
CASSCF energy = -108.905405679075
CASCI E = -108.905405679075  E(CI) = -10.5816430712736  S^2 = 0.0000000
Natural occ [1.90655336 1.73262099 1.73262099 0.2672155  0.2672155  0.09377368]
Natural orbital (expansion on meta-Lowdin AOs) in CAS space
               #1        #2        #3        #4        #5       
0 N 1s           0.00153  -0.00000   0.00000   0.00000   0.00000
0 N 2s           0.05661  -0.00000   0.00000   0.00000  -0.00000
0 N 3s           0.05050   0.00000  -0.00000  -0.00000   0.00000
0 N 4s          -0.00547  -0.00000   0.00000   0.00000  -0.00000
0 N 2px          0.00000   0.67187  -0.21561  -0.67032  -0.22346
0 N 2py          0.00000   0.21561   0.67187   0.22346  -0.67032
0 N 2pz          0.70186  -0.00000   0.00000   0.00000   0.00000
0 N 3px         -0.00000  -0.02949   0.00946  -0.02188  -0.00729
0 N 3py         -0.00000  -0.00946  -0.02949   0.00729  -0.02188
0 N 3pz          0.00865   0.00000  -0.00000  -0.00000   0.00000
0 N 4px          0.00000   0.00080  -0.00026   0.00365   0.00122
0 N 4py          0.00000   0.00026   0.00080  -0.00122   0.00365
0 N 4pz         -0.00909  -0.00000  -0.00000  -0.00000  -0.00000
0 N 3dxy        -0.00000   0.00000  -0.00000  -0.00000  -0.00000
0 N 3dyz         0.00000   0.00995   0.03099   0.00413  -0.01240
0 N 3dz^2        0.03684  -0.00000   0.00000   0.00000  -0.00000
0 N 3dxz         0.00000   0.03099  -0.00995  -0.01240  -0.00413
0 N 3dx2-y2      0.00000   0.00000  -0.00000   0.00000   0.00000
0 N 4dxy         0.00000   0.00000   0.00000   0.00000  -0.00000
0 N 4dyz         0.00000   0.00237   0.00739   0.00062  -0.00185
0 N 4dz^2        0.00621  -0.00000   0.00000   0.00000  -0.00000
0 N 4dxz         0.00000   0.00739  -0.00237  -0.00185  -0.00062
0 N 4dx2-y2      0.00000  -0.00000  -0.00000  -0.00000   0.00000
0 N 4f-3         0.00000  -0.00000  -0.00000  -0.00000   0.00000
0 N 4f-2        -0.00000   0.00000   0.00000  -0.00000   0.00000
0 N 4f-1         0.00000   0.00152   0.00475  -0.00098   0.00295
0 N 4f+0         0.00693  -0.00000   0.00000   0.00000  -0.00000
0 N 4f+1         0.00000   0.00475  -0.00152   0.00295   0.00098
0 N 4f+2        -0.00000   0.00000   0.00000   0.00000  -0.00000
0 N 4f+3        -0.00000   0.00000  -0.00000  -0.00000  -0.00000
1 N 1s           0.00153  -0.00000   0.00000  -0.00000   0.00000
1 N 2s           0.05661   0.00000  -0.00000  -0.00000   0.00000
1 N 3s           0.05050  -0.00000   0.00000   0.00000  -0.00000
1 N 4s          -0.00547  -0.00000  -0.00000  -0.00000   0.00000
1 N 2px          0.00000   0.67187  -0.21561   0.67032   0.22346
1 N 2py         -0.00000   0.21561   0.67187  -0.22346   0.67032
1 N 2pz         -0.70186  -0.00000   0.00000   0.00000   0.00000
1 N 3px         -0.00000  -0.02949   0.00946   0.02188   0.00729
1 N 3py          0.00000  -0.00946  -0.02949  -0.00729   0.02188
1 N 3pz         -0.00865   0.00000  -0.00000  -0.00000   0.00000
1 N 4px         -0.00000   0.00080  -0.00026  -0.00365  -0.00122
1 N 4py         -0.00000   0.00026   0.00080   0.00122  -0.00365
1 N 4pz          0.00909   0.00000  -0.00000  -0.00000  -0.00000
1 N 3dxy        -0.00000   0.00000  -0.00000   0.00000  -0.00000
1 N 3dyz         0.00000  -0.00995  -0.03099   0.00413  -0.01240
1 N 3dz^2        0.03684   0.00000  -0.00000  -0.00000   0.00000
1 N 3dxz         0.00000  -0.03099   0.00995  -0.01240  -0.00413
1 N 3dx2-y2     -0.00000   0.00000  -0.00000  -0.00000   0.00000
1 N 4dxy        -0.00000   0.00000   0.00000  -0.00000  -0.00000
1 N 4dyz         0.00000  -0.00237  -0.00739   0.00062  -0.00185
1 N 4dz^2        0.00621   0.00000  -0.00000  -0.00000   0.00000
1 N 4dxz         0.00000  -0.00739   0.00237  -0.00185  -0.00062
1 N 4dx2-y2     -0.00000  -0.00000  -0.00000   0.00000   0.00000
1 N 4f-3        -0.00000  -0.00000  -0.00000   0.00000  -0.00000
1 N 4f-2        -0.00000   0.00000   0.00000   0.00000   0.00000
1 N 4f-1        -0.00000   0.00152   0.00475   0.00098  -0.00295
1 N 4f+0        -0.00693  -0.00000   0.00000   0.00000  -0.00000
1 N 4f+1        -0.00000   0.00475  -0.00152  -0.00295  -0.00098
1 N 4f+2        -0.00000   0.00000  -0.00000   0.00000   0.00000
1 N 4f+3        -0.00000   0.00000  -0.00000   0.00000   0.00000
               #6       
0 N 1s          -0.00012
0 N 2s           0.24541
0 N 3s          -0.03570
0 N 4s           0.00238
0 N 2px         -0.00000
0 N 2py          0.00000
0 N 2pz          0.66032
0 N 3px          0.00000
0 N 3py          0.00000
0 N 3pz          0.04681
0 N 4px         -0.00000
0 N 4py         -0.00000
0 N 4pz         -0.00603
0 N 3dxy        -0.00000
0 N 3dyz         0.00000
0 N 3dz^2        0.01527
0 N 3dxz        -0.00000
0 N 3dx2-y2     -0.00000
0 N 4dxy         0.00000
0 N 4dyz         0.00000
0 N 4dz^2        0.00065
0 N 4dxz        -0.00000
0 N 4dx2-y2     -0.00000
0 N 4f-3         0.00000
0 N 4f-2        -0.00000
0 N 4f-1         0.00000
0 N 4f+0        -0.00387
0 N 4f+1        -0.00000
0 N 4f+2        -0.00000
0 N 4f+3        -0.00000
1 N 1s           0.00012
1 N 2s          -0.24541
1 N 3s           0.03570
1 N 4s          -0.00238
1 N 2px         -0.00000
1 N 2py          0.00000
1 N 2pz          0.66032
1 N 3px         -0.00000
1 N 3py          0.00000
1 N 3pz          0.04681
1 N 4px          0.00000
1 N 4py         -0.00000
1 N 4pz         -0.00603
1 N 3dxy         0.00000
1 N 3dyz         0.00000
1 N 3dz^2       -0.01527
1 N 3dxz        -0.00000
1 N 3dx2-y2     -0.00000
1 N 4dxy        -0.00000
1 N 4dyz         0.00000
1 N 4dz^2       -0.00065
1 N 4dxz        -0.00000
1 N 4dx2-y2     -0.00000
1 N 4f-3         0.00000
1 N 4f-2        -0.00000
1 N 4f-1        -0.00000
1 N 4f+0        -0.00387
1 N 4f+1         0.00000
1 N 4f+2        -0.00000
1 N 4f+3        -0.00000
<CAS-nat-orb|mo-hf>  5      5        0.92758307
<CAS-nat-orb|mo-hf>  6      6        0.85755280
<CAS-nat-orb|mo-hf>  6      7        0.51235420
<CAS-nat-orb|mo-hf>  7      6       -0.51235420
<CAS-nat-orb|mo-hf>  7      7        0.85755280
<CAS-nat-orb|mo-hf>  8      8        0.82838046
<CAS-nat-orb|mo-hf>  8      9       -0.52172023
<CAS-nat-orb|mo-hf>  9      8        0.52172023
<CAS-nat-orb|mo-hf>  9      9        0.82838046
<CAS-nat-orb|mo-hf>  10     10       0.90166832
<CAS-nat-orb|mo-hf>  10     11      -0.41088374
Sr    (-1)',   E = -0.01567850560329
Si    (+1)',   E = -0.00164262842513
Sijrs (0)  ,   E = -0.03113958315216
Sijr  (+1) ,   E = -0.00774549714009
Srsi  (-1) ,   E = -0.05453998953431
Srs   (-2) ,   E = -0.04865519993032
Sij   (+2) ,   E = -0.00476490548446
Sir   (0)' ,   E = -0.07949216270434
Nevpt2 Energy = -0.243658471974116
Starting initial orbital calculation.

Starting MOLCAS:
/public/home/xzzeng/soft/OpenMolcas/build/pymolcas -b 1 -f
MOLCAS environment:
MOLCAS_PROJECT:  n2
MOLCAS_MEM:      12000
WorkDir:         /public/home/xzzeng/work/HQC/N2/cc-pvtz/NO/PES/entropy/1.8/results/scratch
MOLCAS_NPROCS:   1
OMP_NUM_THREADS: 1
QCMaquis_CPU:    1
Initial orbitals finished.
Starting calculation.

Starting MOLCAS:
/public/home/xzzeng/soft/OpenMolcas/build/pymolcas -b 1 -f
MOLCAS environment:
MOLCAS_PROJECT:  n2
MOLCAS_MEM:      12000
WorkDir:         /public/home/xzzeng/work/HQC/N2/cc-pvtz/NO/PES/entropy/1.8/results/scratch
MOLCAS_NPROCS:   1
OMP_NUM_THREADS: 1
QCMaquis_CPU:    1
Calculation finished.

*******************************************************************************************
*                                                                                         *
*                                 Active space search                                     *
*                                                                                         *
*******************************************************************************************
Start active space search for provided set of 8 orbitals and 10 electrons.
Maximal single orbital entropy: 0.8593455960740124
Found plateau, including 6 orbitals.
Found smaller active space.
Selected active space CAS(e, o): (6, 6)
Orbital indices:     [4, 5, 6, 7, 8, 9]
Orbital occupations: [2, 2, 2, 0, 0, 0]


******** <class 'pyscf.scf.hf.RHF'> ********
method = RHF
initial guess = minao
damping factor = 0
level_shift factor = 0
DIIS = <class 'pyscf.scf.diis.CDIIS'>
diis_start_cycle = 1
diis_space = 8
diis_damp = 0
SCF conv_tol = 1e-09
SCF conv_tol_grad = None
SCF max_cycles = 50
direct_scf = True
direct_scf_tol = 1e-13
chkfile to save SCF result = /tmp/tmpi1h57wpk
max_memory 4000 MB (current use 162 MB)
Set gradient conv threshold to 3.16228e-05
Initial guess from minao.
init E= -107.764730325307
  HOMO = -0.236107132522061  LUMO = -0.0979722563241532
cycle= 1 E= -108.447463037653  delta_E= -0.683  |g|= 0.354  |ddm|= 1.19
  HOMO = -0.485576171508746  LUMO = -0.119310217850209
cycle= 2 E= -108.474880027639  delta_E= -0.0274  |g|= 0.101  |ddm|= 0.305
  HOMO = -0.434151145619776  LUMO = -0.0633802737336949
cycle= 3 E= -108.47726883286  delta_E= -0.00239  |g|= 0.0205  |ddm|= 0.0542
  HOMO = -0.433575433628567  LUMO = -0.0614156045923815
cycle= 4 E= -108.47749812122  delta_E= -0.000229  |g|= 0.00313  |ddm|= 0.0244
  HOMO = -0.434440095899129  LUMO = -0.062239322812592
cycle= 5 E= -108.477501453313  delta_E= -3.33e-06  |g|= 0.000267  |ddm|= 0.00284
  HOMO = -0.434385491423084  LUMO = -0.0621818929565329
cycle= 6 E= -108.477501471679  delta_E= -1.84e-08  |g|= 5.11e-05  |ddm|= 0.000241
  HOMO = -0.434383565048203  LUMO = -0.0621763664522676
cycle= 7 E= -108.477501472616  delta_E= -9.38e-10  |g|= 7.09e-06  |ddm|= 5.2e-05
  HOMO = -0.434383236252109  LUMO = -0.0621762183931138
Extra cycle  E= -108.477501472636  delta_E= -1.92e-11  |g|= 1.97e-06  |ddm|= 7.42e-06
converged SCF energy = -108.477501472636

******** CASCI flags ********
CAS (3e+3e, 6o), ncore = 4, nvir = 50
natorb = False
canonicalization = True
sorting_mo_energy = False
max_memory 4000 (MB)
******** <class 'pyscf.fci.direct_spin1.FCISolver'> ********
max. cycles = 200
conv_tol = 1e-08
davidson only = False
linear dependence = 1e-12
level shift = 0.001
max iter space = 12
max_memory 4000 MB
nroots = 1
pspace_size = 400
spin = None
Density matrix diagonal elements [1.86641424 1.57899385 1.57899385 0.42218701 0.42218701 0.13122404]
CASCI converged
CASCI E = -108.775641112564  E(CI) = -9.59020284299457  S^2 = 0.0000000

******** <class 'pyscf.mcscf.mc1step.CASSCF'> ********
CAS (3e+3e, 6o), ncore = 4, nvir = 50
max_cycle_macro = 50
max_cycle_micro = 4
conv_tol = 1e-07
conv_tol_grad = None
orbital rotation max_stepsize = 0.02
orbital rotation threshold for CI restart = 0.01
augmented hessian ah_max_cycle = 30
augmented hessian ah_conv_tol = 1e-12
augmented hessian ah_linear dependence = 1e-14
augmented hessian ah_level shift = 1e-08
augmented hessian ah_start_tol = 2.5
augmented hessian ah_start_cycle = 3
augmented hessian ah_grad_trust_region = 3
kf_trust_region = 3
kf_interval = 4
[...]
augmented hessian ah_grad_trust_region = 3
kf_trust_region = 3
kf_interval = 4
ci_response_space = 4
ci_grad_trust_region = 3
with_dep4 0
natorb = False
canonicalization = True
sorting_mo_energy = False
ao2mo_level = 2
chkfile = /tmp/tmp6eazyxlt
max_memory 4000 MB (current use 162 MB)
internal_rotation = False
******** <class 'pyscf.fci.direct_spin1.FCISolver'> ********
max. cycles = 50
conv_tol = 1e-08
davidson only = False
linear dependence = 1e-12
level shift = 0.001
max iter space = 12
max_memory 4000 MB
nroots = 1
pspace_size = 400
spin = None
CASCI E = -108.741492244239  S^2 = 12.0000000
Set conv_tol_grad to 0.000316228
macro iter   1 ( 13 JK    4 micro), CASSCF E = -108.794630994634  dE = -5.31387504e-02  S^2 = 12.0000000
               |grad[o]|=0.237  |grad[c]|=0.0474  |ddm|=1.09e-15  |maxRot[o]|=0.101
macro iter   2 (  8 JK    3 micro), CASSCF E = -108.794718815428  dE = -8.78207942e-05  S^2 = 12.0000000
               |grad[o]|=0.0119  |grad[c]|=7.57e-05  |ddm|=    0  |maxRot[o]|=0.00336
macro iter   3 (  1 JK    1 micro), CASSCF E = -108.794718815428  dE =  0.00000000e+00  S^2 = 12.0000000
               |grad[o]|=2.48e-05  |grad[c]|=1.02e-14  |ddm|=    0  |maxRot[o]|=    0
1-step CASSCF converged in   3 macro ( 22 JK   8 micro) steps
CASSCF canonicalization
Density matrix diagonal elements [1. 1. 1. 1. 1. 1.]
CASSCF energy = -108.794718815428
CASCI E = -108.794718815428  E(CI) = -7.93692394471380  S^2 = 12.0000000
Natural occ [1. 1. 1. 1. 1. 1.]
Natural orbital (expansion on meta-Lowdin AOs) in CAS space
               #1        #2        #3        #4        #5       
0 N 1s           0.00000  -0.00000   0.00000  -0.00000  -0.00000
0 N 2s          -0.00001   0.00002  -0.00022   0.00022   0.00000
0 N 3s          -0.00001   0.00003  -0.00038   0.00037   0.00000
0 N 4s           0.00000  -0.00001   0.00008  -0.00008  -0.00000
0 N 2px         -0.47256   0.70699  -0.00000  -0.06801   0.52059
0 N 2py          0.50384   0.00443   0.00000   0.05486   0.47821
0 N 2pz         -0.02005   0.05287   0.70672   0.70334   0.00076
0 N 3px          0.01504  -0.02243   0.00000   0.00215  -0.01645
0 N 3py         -0.01603  -0.00021  -0.00000  -0.00174  -0.01511
0 N 3pz          0.00061  -0.00162  -0.02322  -0.02152  -0.00002
0 N 4px          0.00096  -0.00146   0.00000   0.00014  -0.00110
0 N 4py         -0.00102   0.00002  -0.00000  -0.00012  -0.00101
0 N 4pz          0.00005  -0.00014  -0.00110  -0.00181  -0.00000
0 N 3dxy         0.00000   0.00000  -0.00000   0.00000  -0.00000
0 N 3dyz         0.00001   0.00001  -0.00000  -0.00000  -0.00001
0 N 3dz^2        0.00000  -0.00001   0.00008  -0.00008  -0.00000
0 N 3dxz        -0.00001   0.00000   0.00000   0.00000  -0.00001
0 N 3dx2-y2      0.00000   0.00000   0.00000  -0.00000   0.00000
0 N 4dxy         0.00000  -0.00000  -0.00000  -0.00000  -0.00000
0 N 4dyz         0.00000   0.00000  -0.00000  -0.00000  -0.00000
0 N 4dz^2        0.00000  -0.00000   0.00005  -0.00005  -0.00000
0 N 4dxz        -0.00000   0.00000   0.00000   0.00000  -0.00000
0 N 4dx2-y2     -0.00000   0.00000   0.00000   0.00000   0.00000
0 N 4f-3         0.00000  -0.00000   0.00000   0.00000  -0.00000
0 N 4f-2        -0.00000   0.00000  -0.00000   0.00000  -0.00000
0 N 4f-1         0.00000   0.00000  -0.00000  -0.00000  -0.00000
0 N 4f+0         0.00000  -0.00000   0.00000  -0.00000  -0.00000
0 N 4f+1        -0.00000   0.00000   0.00000   0.00000  -0.00000
0 N 4f+2         0.00000  -0.00000   0.00000  -0.00000  -0.00000
0 N 4f+3         0.00000   0.00000  -0.00000   0.00000   0.00000
1 N 1s          -0.00000   0.00000   0.00000   0.00000   0.00000
1 N 2s           0.00001  -0.00002  -0.00022  -0.00022  -0.00000
1 N 3s           0.00001  -0.00003  -0.00038  -0.00037  -0.00000
1 N 4s          -0.00000   0.00001   0.00008   0.00008   0.00000
1 N 2px         -0.49308   0.06999   0.00000   0.02119  -0.52083
1 N 2py          0.52714   0.69903  -0.00000  -0.04007  -0.47752
1 N 2pz         -0.02005   0.05287  -0.70672   0.70334   0.00076
1 N 3px          0.01568  -0.00229  -0.00000  -0.00066   0.01646
1 N 3py         -0.01677  -0.02217   0.00000   0.00126   0.01509
1 N 3pz          0.00061  -0.00162   0.02322  -0.02152  -0.00002
1 N 4px          0.00100  -0.00011  -0.00000  -0.00005   0.00110
1 N 4py         -0.00107  -0.00145   0.00000   0.00009   0.00101
1 N 4pz          0.00005  -0.00014   0.00110  -0.00181  -0.00000
1 N 3dxy        -0.00000   0.00000   0.00000   0.00000  -0.00000
1 N 3dyz        -0.00001  -0.00000  -0.00000  -0.00000  -0.00001
1 N 3dz^2       -0.00000   0.00001   0.00008   0.00008   0.00000
1 N 3dxz         0.00001  -0.00001   0.00000   0.00000  -0.00001
1 N 3dx2-y2      0.00000  -0.00000  -0.00000  -0.00000   0.00000
1 N 4dxy         0.00000  -0.00000   0.00000  -0.00000  -0.00000
1 N 4dyz        -0.00000  -0.00000  -0.00000  -0.00000  -0.00000
1 N 4dz^2       -0.00000   0.00000   0.00005   0.00005   0.00000
1 N 4dxz         0.00000  -0.00000   0.00000   0.00000  -0.00000
1 N 4dx2-y2     -0.00000   0.00000  -0.00000   0.00000   0.00000
1 N 4f-3        -0.00000  -0.00000   0.00000   0.00000  -0.00000
1 N 4f-2         0.00000  -0.00000  -0.00000  -0.00000   0.00000
1 N 4f-1         0.00000  -0.00000   0.00000   0.00000   0.00000
1 N 4f+0         0.00000  -0.00000  -0.00000  -0.00000  -0.00000
1 N 4f+1        -0.00000   0.00000  -0.00000  -0.00000   0.00000
1 N 4f+2        -0.00000   0.00000   0.00000   0.00000   0.00000
1 N 4f+3        -0.00000  -0.00000   0.00000   0.00000   0.00000
               #6       
0 N 1s          -0.00000
0 N 2s           0.00001
0 N 3s           0.00002
0 N 4s          -0.00000
0 N 2px          0.01432
0 N 2py         -0.71653
0 N 2pz          0.04059
0 N 3px         -0.00038
0 N 3py          0.02272
0 N 3pz         -0.00124
0 N 4px         -0.00006
0 N 4py          0.00149
0 N 4pz         -0.00010
0 N 3dxy         0.00000
0 N 3dyz         0.00000
0 N 3dz^2       -0.00000
0 N 3dxz        -0.00001
0 N 3dx2-y2     -0.00000
0 N 4dxy        -0.00000
0 N 4dyz         0.00000
0 N 4dz^2       -0.00000
0 N 4dxz        -0.00000
0 N 4dx2-y2      0.00000
0 N 4f-3        -0.00000
0 N 4f-2         0.00000
0 N 4f-1         0.00000
0 N 4f+0        -0.00000
0 N 4f+1        -0.00000
0 N 4f+2        -0.00000
0 N 4f+3        -0.00000
1 N 1s           0.00000
1 N 2s          -0.00001
1 N 3s          -0.00002
1 N 4s           0.00000
1 N 2px         -0.69227
1 N 2py          0.05324
1 N 2pz          0.04059
1 N 3px          0.02195
1 N 3py         -0.00161
1 N 3pz         -0.00124
1 N 4px          0.00144
1 N 4py         -0.00014
1 N 4pz         -0.00010
1 N 3dxy         0.00000
1 N 3dyz         0.00001
1 N 3dz^2        0.00000
1 N 3dxz         0.00000
1 N 3dx2-y2      0.00000
1 N 4dxy        -0.00000
1 N 4dyz         0.00000
1 N 4dz^2        0.00000
1 N 4dxz        -0.00000
1 N 4dx2-y2      0.00000
1 N 4f-3        -0.00000
1 N 4f-2        -0.00000
1 N 4f-1        -0.00000
1 N 4f+0        -0.00000
1 N 4f+1         0.00000
1 N 4f+2         0.00000
1 N 4f+3         0.00000
<CAS-nat-orb|mo-hf>  5      7        0.99497395
<CAS-nat-orb|mo-hf>  6      6        0.73806657
<CAS-nat-orb|mo-hf>  6      8        0.66382448
<CAS-nat-orb|mo-hf>  7      5        0.99516145
<CAS-nat-orb|mo-hf>  8      10       0.99087249
<CAS-nat-orb|mo-hf>  9      9        0.99559545
<CAS-nat-orb|mo-hf>  10     6       -0.66800255
<CAS-nat-orb|mo-hf>  10     8        0.73597191
Sr    (-1)',   E = -0.00000000030487
Si    (+1)',   E = -0.00000000000869
Sijrs (0)  ,   E = -0.02900000212664
Sijr  (+1) ,   E = -0.00599737198288
Srsi  (-1) ,   E = -0.06304045677670
Srs   (-2) ,   E = -0.03908737175716
Sij   (+2) ,   E = -0.00000127656763
Sir   (0)' ,   E = -0.08260030147001
Nevpt2 Energy = -0.219726780994579
Starting initial orbital calculation.

Starting MOLCAS:
/public/home/xzzeng/soft/OpenMolcas/build/pymolcas -b 1 -f
MOLCAS environment:
MOLCAS_PROJECT:  n2
MOLCAS_MEM:      12000
WorkDir:         /public/home/xzzeng/work/HQC/N2/cc-pvtz/NO/PES/entropy/6.0/results/scratch
MOLCAS_NPROCS:   1
OMP_NUM_THREADS: 1
QCMaquis_CPU:    1
Initial orbitals finished.
Starting calculation.

Starting MOLCAS:
/public/home/xzzeng/soft/OpenMolcas/build/pymolcas -b 1 -f
MOLCAS environment:
MOLCAS_PROJECT:  n2
MOLCAS_MEM:      12000
WorkDir:         /public/home/xzzeng/work/HQC/N2/cc-pvtz/NO/PES/entropy/6.0/results/scratch
MOLCAS_NPROCS:   1
OMP_NUM_THREADS: 1
QCMaquis_CPU:    1
Calculation finished.

*******************************************************************************************
*                                                                                         *
*                                 Active space search                                     *
*                                                                                         *
*******************************************************************************************
Start active space search for provided set of 8 orbitals and 10 electrons.
Maximal single orbital entropy: 1.329670319742867
Found plateau, including 6 orbitals.
Found smaller active space.
Selected active space CAS(e, o): (6, 6)
Orbital indices:     [4, 5, 6, 7, 8, 9]
Orbital occupations: [2, 2, 2, 0, 0, 0]


******** <class 'pyscf.scf.hf.RHF'> ********
method = RHF
initial guess = minao
damping factor = 0
level_shift factor = 0
DIIS = <class 'pyscf.scf.diis.CDIIS'>
diis_start_cycle = 1
diis_space = 8
diis_damp = 0
SCF conv_tol = 1e-09
SCF conv_tol_grad = None
SCF max_cycles = 50
direct_scf = True
direct_scf_tol = 1e-13
chkfile to save SCF result = /tmp/tmprltnuc0s
max_memory 4000 MB (current use 162 MB)
Set gradient conv threshold to 3.16228e-05
Initial guess from minao.
init E= -107.582178562933

WARN: HOMO -0.164634830957995 == LUMO -0.164621541916924

cycle= 1 E= -107.804091197518  delta_E= -0.222  |g|= 0.282  |ddm|= 1.34
  HOMO = -0.330746138394629  LUMO = -0.243560317639732
cycle= 2 E= -107.81804534108  delta_E= -0.014  |g|= 0.104  |ddm|= 0.259
  HOMO = -0.29187747888258  LUMO = -0.204489610040659
cycle= 3 E= -107.820343571308  delta_E= -0.0023  |g|= 0.00743  |ddm|= 0.0691
  HOMO = -0.291819520622813  LUMO = -0.204372330144542
cycle= 4 E= -107.820362745107  delta_E= -1.92e-05  |g|= 0.000711  |ddm|= 0.00989
  HOMO = -0.292003124790536  LUMO = -0.204568772183784
cycle= 5 E= -107.820362863296  delta_E= -1.18e-07  |g|= 0.000228  |ddm|= 0.000606
  HOMO = -0.291997035628181  LUMO = -0.204561776195314
cycle= 6 E= -107.820359338982  delta_E= 3.52e-06  |g|= 0.00452  |ddm|= 0.00124
  HOMO = -0.291993936672591  LUMO = -0.204558292846213
cycle= 7 E= -107.820362874865  delta_E= -3.54e-06  |g|= 2.02e-05  |ddm|= 0.00119
  HOMO = -0.291993004598785  LUMO = -0.20455728402133
cycle= 8 E= -107.820362875004  delta_E= -1.39e-10  |g|= 3.26e-06  |ddm|= 2.01e-05
  HOMO = -0.291992899963985  LUMO = -0.204557180813655
Extra cycle  E= -107.820362875327  delta_E= -3.23e-10  |g|= 1.74e-05  |ddm|= 2.37e-05
converged SCF energy = -107.820362875327

******** CASCI flags ********
CAS (3e+3e, 6o), ncore = 4, nvir = 50
natorb = False
canonicalization = True
sorting_mo_energy = False
max_memory 4000 (MB)
******** <class 'pyscf.fci.direct_spin1.FCISolver'> ********
max. cycles = 200
conv_tol = 1e-08
davidson only = False
linear dependence = 1e-12
level shift = 0.001
max iter space = 12
max_memory 4000 MB
nroots = 1
pspace_size = 400
spin = None
Density matrix diagonal elements [1. 1. 1. 1. 1. 1.]
CASCI converged
CASCI E = -108.741308588468  E(CI) = -7.65710213114021  S^2 = 12.0000000

******** <class 'pyscf.mcscf.mc1step.CASSCF'> ********
CAS (3e+3e, 6o), ncore = 4, nvir = 50
max_cycle_macro = 50
max_cycle_micro = 4
conv_tol = 1e-07
conv_tol_grad = None
orbital rotation max_stepsize = 0.02
orbital rotation threshold for CI restart = 0.01
augmented hessian ah_max_cycle = 30
augmented hessian ah_conv_tol = 1e-12
augmented hessian ah_linear dependence = 1e-14
augmented hessian ah_level shift = 1e-08
augmented hessian ah_start_tol = 2.5
augmented hessian ah_start_cycle = 3
augmented hessian ah_grad_trust_region = 3
kf_trust_region = 3
kf_interval = 4
ci_response_space = 4
ci_grad_trust_region = 3
with_dep4 0
natorb = False
canonicalization = True
sorting_mo_energy = False
ao2mo_level = 2
chkfile = /tmp/tmprltnuc0s
max_memory 4000 MB (current use 162 MB)
internal_rotation = False
******** <class 'pyscf.fci.direct_spin1.FCISolver'> ********
max. cycles = 50
conv_tol = 1e-08
davidson only = False
linear dependence = 1e-12
level shift = 0.001
max iter space = 12
max_memory 4000 MB
nroots = 1
pspace_size = 400
spin = None
CASCI E = -108.741308588468  S^2 = 12.0000000
Set conv_tol_grad to 0.000316228
macro iter   1 ( 12 JK    4 micro), CASSCF E = -108.794625387562  dE = -5.33167991e-02  S^2 = 12.0000000
               |grad[o]|=0.238  |grad[c]|=0.0477  |ddm|=1.09e-15  |maxRot[o]|=0.0983
macro iter   2 (  6 JK    2 micro), CASSCF E = -108.794715724663  dE = -9.03371005e-05  S^2 = 12.0000000
               |grad[o]|=0.012  |grad[c]|=7.81e-05  |ddm|=    0  |maxRot[o]|=0.00342
macro iter   3 (  3 JK    1 micro), CASSCF E = -108.794715725374  dE = -7.10898007e-10  S^2 = 12.0000000
               |grad[o]|=3.73e-05  |grad[c]|=5.27e-10  |ddm|=    0  |maxRot[o]|=1.08e-05
1-step CASSCF converged in   3 macro ( 21 JK   7 micro) steps
CASSCF canonicalization
Density matrix diagonal elements [1. 1. 1. 1. 1. 1.]
CASSCF energy = -108.794715725374
CASCI E = -108.794715725374  E(CI) = -7.77816106612819  S^2 = 12.0000000
Natural occ [1. 1. 1. 1. 1. 1.]
Natural orbital (expansion on meta-Lowdin AOs) in CAS space
               #1        #2        #3        #4        #5       
0 N 1s          -0.00000  -0.00000  -0.00000   0.00000   0.00000
0 N 2s          -0.00000  -0.00000  -0.00001   0.00001   0.00001
0 N 3s          -0.00000  -0.00001  -0.00003   0.00002   0.00001
0 N 4s           0.00000   0.00000   0.00001  -0.00000  -0.00000
0 N 2px         -0.59385  -0.50368   0.00000  -0.51973   0.33035
0 N 2py          0.69184  -0.60061   0.00000  -0.20217  -0.10510
0 N 2pz         -0.09277  -0.18172   0.70675   0.53525   0.29739
0 N 3px          0.01884   0.01598  -0.00000   0.01648  -0.01047
0 N 3py         -0.02194   0.01905  -0.00000   0.00641   0.00333
0 N 3pz          0.00293   0.00574  -0.02250  -0.01692  -0.00940
0 N 4px          0.00123   0.00104  -0.00000   0.00108  -0.00069
0 N 4py         -0.00144   0.00125  -0.00000   0.00042   0.00022
0 N 4pz          0.00020   0.00039  -0.00143  -0.00114  -0.00063
0 N 3dxy         0.00000   0.00000  -0.00000  -0.00000  -0.00000
0 N 3dyz         0.00000   0.00000   0.00000  -0.00000   0.00000
0 N 3dz^2        0.00000   0.00000   0.00000  -0.00000  -0.00000
0 N 3dxz        -0.00000  -0.00000  -0.00000   0.00000  -0.00000
0 N 3dx2-y2      0.00000   0.00000  -0.00000  -0.00000  -0.00000
0 N 4dxy         0.00000   0.00000  -0.00000  -0.00000  -0.00000
0 N 4dyz        -0.00000   0.00000  -0.00000  -0.00000   0.00000
0 N 4dz^2        0.00000   0.00000   0.00000  -0.00000  -0.00000
0 N 4dxz        -0.00000  -0.00000   0.00000   0.00000  -0.00000
0 N 4dx2-y2      0.00000   0.00000  -0.00000  -0.00000  -0.00000
0 N 4f-3        -0.00000   0.00000  -0.00000   0.00000  -0.00000
0 N 4f-2         0.00000   0.00000   0.00000  -0.00000  -0.00000
0 N 4f-1        -0.00000   0.00000   0.00000  -0.00000   0.00000
0 N 4f+0         0.00000   0.00000   0.00000  -0.00000  -0.00000
0 N 4f+1        -0.00000   0.00000   0.00000   0.00000  -0.00000
0 N 4f+2         0.00000   0.00000   0.00000  -0.00000  -0.00000
0 N 4f+3         0.00000   0.00000  -0.00000   0.00000  -0.00000
1 N 1s           0.00000   0.00000  -0.00000  -0.00000  -0.00000
1 N 2s           0.00000   0.00000  -0.00001  -0.00001  -0.00001
1 N 3s           0.00000   0.00001  -0.00003  -0.00002  -0.00001
1 N 4s          -0.00000  -0.00000   0.00001   0.00000   0.00000
1 N 2px         -0.38696  -0.17584  -0.00000   0.15832  -0.82883
1 N 2py          0.02733   0.53629  -0.00000  -0.29989   0.12235
1 N 2pz         -0.09277  -0.18172  -0.70674   0.53526   0.29740
1 N 3px          0.01228   0.00558   0.00000  -0.00502   0.02629
1 N 3py         -0.00087  -0.01701   0.00000   0.00951  -0.00388
1 N 3pz          0.00293   0.00574   0.02250  -0.01692  -0.00940
1 N 4px          0.00080   0.00036   0.00000  -0.00033   0.00172
1 N 4py         -0.00005  -0.00111   0.00000   0.00062  -0.00025
1 N 4pz          0.00020   0.00039   0.00143  -0.00114  -0.00063
1 N 3dxy         0.00000   0.00000   0.00000  -0.00000  -0.00000
1 N 3dyz        -0.00000   0.00000  -0.00000   0.00000   0.00000
1 N 3dz^2       -0.00000  -0.00000   0.00000   0.00000   0.00000
1 N 3dxz         0.00000   0.00000   0.00000   0.00000  -0.00000
1 N 3dx2-y2      0.00000   0.00000   0.00000  -0.00000  -0.00000
1 N 4dxy         0.00000   0.00000   0.00000  -0.00000  -0.00000
1 N 4dyz        -0.00000   0.00000  -0.00000   0.00000   0.00000
1 N 4dz^2       -0.00000  -0.00000   0.00000   0.00000   0.00000
1 N 4dxz         0.00000   0.00000  -0.00000   0.00000  -0.00000
1 N 4dx2-y2      0.00000   0.00000   0.00000  -0.00000  -0.00000
1 N 4f-3        -0.00000   0.00000  -0.00000  -0.00000  -0.00000
1 N 4f-2        -0.00000  -0.00000   0.00000   0.00000   0.00000
1 N 4f-1         0.00000  -0.00000  -0.00000  -0.00000  -0.00000
1 N 4f+0         0.00000   0.00000  -0.00000  -0.00000  -0.00000
1 N 4f+1        -0.00000  -0.00000  -0.00000  -0.00000   0.00000
1 N 4f+2        -0.00000  -0.00000   0.00000   0.00000   0.00000
1 N 4f+3        -0.00000  -0.00000  -0.00000   0.00000  -0.00000
               #6       
0 N 1s           0.00000
0 N 2s           0.00001
0 N 3s           0.00001
0 N 4s          -0.00000
0 N 2px          0.11572
0 N 2py          0.32818
0 N 2pz          0.28797
0 N 3px         -0.00367
0 N 3py         -0.01041
0 N 3pz         -0.00910
0 N 4px         -0.00024
0 N 4py         -0.00068
0 N 4pz         -0.00061
0 N 3dxy        -0.00000
0 N 3dyz         0.00000
0 N 3dz^2       -0.00000
0 N 3dxz         0.00000
0 N 3dx2-y2     -0.00000
0 N 4dxy        -0.00000
0 N 4dyz         0.00000
0 N 4dz^2       -0.00000
0 N 4dxz         0.00000
0 N 4dx2-y2     -0.00000
0 N 4f-3        -0.00000
0 N 4f-2        -0.00000
0 N 4f-1         0.00000
0 N 4f+0        -0.00000
0 N 4f+1         0.00000
0 N 4f+2        -0.00000
0 N 4f+3         0.00000
1 N 1s          -0.00000
1 N 2s          -0.00001
1 N 3s          -0.00001
1 N 4s           0.00000
1 N 2px          0.32605
1 N 2py          0.77829
1 N 2pz          0.28797
1 N 3px         -0.01034
1 N 3py         -0.02469
1 N 3pz         -0.00910
1 N 4px         -0.00068
1 N 4py         -0.00161
1 N 4pz         -0.00061
1 N 3dxy        -0.00000
1 N 3dyz        -0.00000
1 N 3dz^2        0.00000
1 N 3dxz        -0.00000
1 N 3dx2-y2     -0.00000
1 N 4dxy        -0.00000
1 N 4dyz        -0.00000
1 N 4dz^2        0.00000
1 N 4dxz        -0.00000
1 N 4dx2-y2     -0.00000
1 N 4f-3         0.00000
1 N 4f-2         0.00000
1 N 4f-1         0.00000
1 N 4f+0        -0.00000
1 N 4f+1        -0.00000
1 N 4f+2         0.00000
1 N 4f+3         0.00000
<CAS-nat-orb|mo-hf>  5      6       -0.59556146
<CAS-nat-orb|mo-hf>  5      7        0.61573065
<CAS-nat-orb|mo-hf>  5      8       -0.48587420
<CAS-nat-orb|mo-hf>  6      6       -0.47938981
<CAS-nat-orb|mo-hf>  6      8        0.75036473
<CAS-nat-orb|mo-hf>  7      5        0.99544710
<CAS-nat-orb|mo-hf>  8      9       -0.45913811
<CAS-nat-orb|mo-hf>  8      10       0.75399912
<CAS-nat-orb|mo-hf>  9      9        0.77774401
<CAS-nat-orb|mo-hf>  9      10       0.41893087
<CAS-nat-orb|mo-hf>  10     6        0.43806289
<CAS-nat-orb|mo-hf>  10     7        0.71573520
<CAS-nat-orb|mo-hf>  10     10       0.40565371
Sr    (-1)',   E = -0.00000000000058
Si    (+1)',   E = -0.00000000000016
Sijrs (0)  ,   E = -0.02899987459165
Sijr  (+1) ,   E = -0.00599671864962
Srsi  (-1) ,   E = -0.06303861421287
Srs   (-2) ,   E = -0.03908243404580
Sij   (+2) ,   E = -0.00000043070816
Sir   (0)' ,   E = -0.08259584438068
Nevpt2 Energy = -0.219713916589521
