Generated by MOKIT
SP        RHF                                                         MYBAS
Number of atoms                            I                2
Charge                                     I                0
Multiplicity                               I                1
Number of electrons                        I               14
Number of alpha electrons                  I                7
Number of beta electrons                   I                7
Number of basis functions                  I               60
Number of independent functions            I               60
Atomic numbers                             I   N=           2
           7           7
Nuclear charges                            R   N=           2
  7.00000000E+00  7.00000000E+00
Current cartesian coordinates              R   N=           6
  0.00000000E+00  0.00000000E+00  0.00000000E+00  0.00000000E+00  0.00000000E+00
  2.05980148E+00
Int Atom Types                             I   N=           2
           0           0
Number of contracted shells                I               20
Number of primitive shells                 I               52
Highest angular momentum                   I                3
Largest degree of contraction              I                8
Shell types                                I   N=          20
           0           0           0           0           1           1
           1          -2          -2          -3           0           0
           0           0           1           1           1          -2
          -2          -3
Number of primitives per shell             I   N=          20
           8           8           1           1           3           1
           1           1           1           1           8           8
           1           1           3           1           1           1
           1           1
Shell to atom map                          I   N=          20
           1           1           1           1           1           1
           1           1           1           1           2           2
           2           2           2           2           2           2
           2           2
Primitive exponents                        R   N=          52
  1.14200000E+04  1.71200000E+03  3.89300000E+02  1.10000000E+02  3.55700000E+01
  1.25400000E+01  4.64400000E+00  5.11800000E-01  1.14200000E+04  1.71200000E+03
  3.89300000E+02  1.10000000E+02  3.55700000E+01  1.25400000E+01  4.64400000E+00
  5.11800000E-01  1.29300000E+00  1.78700000E-01  2.66300000E+01  5.94800000E+00
  1.74200000E+00  5.55000000E-01  1.72500000E-01  1.65400000E+00  4.69000000E-01
  1.09300000E+00  1.14200000E+04  1.71200000E+03  3.89300000E+02  1.10000000E+02
  3.55700000E+01  1.25400000E+01  4.64400000E+00  5.11800000E-01  1.14200000E+04
  1.71200000E+03  3.89300000E+02  1.10000000E+02  3.55700000E+01  1.25400000E+01
  4.64400000E+00  5.11800000E-01  1.29300000E+00  1.78700000E-01  2.66300000E+01
  5.94800000E+00  1.74200000E+00  5.55000000E-01  1.72500000E-01  1.65400000E+00
  4.69000000E-01  1.09300000E+00
Contraction coefficients                   R   N=          52
  5.34980914E-04  4.13766310E-03  2.12509149E-02  8.25762988E-02  2.38413273E-01
  4.43431666E-01  3.55431909E-01 -8.70290176E-03 -1.98776985E-04 -1.54700349E-03
 -7.99256330E-03 -3.20255651E-02 -9.91102048E-02 -2.28292775E-01 -2.98182763E-01
  1.03700052E+00  1.00000000E+00  1.00000000E+00  3.98072123E-02  2.49002660E-01
  8.10479727E-01  1.00000000E+00  1.00000000E+00  1.00000000E+00  1.00000000E+00
  1.00000000E+00  5.34980914E-04  4.13766310E-03  2.12509149E-02  8.25762988E-02
  2.38413273E-01  4.43431666E-01  3.55431909E-01 -8.70290176E-03 -1.98776985E-04
 -1.54700349E-03 -7.99256330E-03 -3.20255651E-02 -9.91102048E-02 -2.28292775E-01
 -2.98182763E-01  1.03700052E+00  1.00000000E+00  1.00000000E+00  3.98072123E-02
  2.49002660E-01  8.10479727E-01  1.00000000E+00  1.00000000E+00  1.00000000E+00
  1.00000000E+00  1.00000000E+00
Coordinates of each shell                  R   N=          60
  0.00000000E+00  0.00000000E+00  0.00000000E+00  0.00000000E+00  0.00000000E+00
  0.00000000E+00  0.00000000E+00  0.00000000E+00  0.00000000E+00  0.00000000E+00
  0.00000000E+00  0.00000000E+00  0.00000000E+00  0.00000000E+00  0.00000000E+00
  0.00000000E+00  0.00000000E+00  0.00000000E+00  0.00000000E+00  0.00000000E+00
  0.00000000E+00  0.00000000E+00  0.00000000E+00  0.00000000E+00  0.00000000E+00
  0.00000000E+00  0.00000000E+00  0.00000000E+00  0.00000000E+00  0.00000000E+00
  0.00000000E+00  0.00000000E+00  2.05980148E+00  0.00000000E+00  0.00000000E+00
  2.05980148E+00  0.00000000E+00  0.00000000E+00  2.05980148E+00  0.00000000E+00
  0.00000000E+00  2.05980148E+00  0.00000000E+00  0.00000000E+00  2.05980148E+00
  0.00000000E+00  0.00000000E+00  2.05980148E+00  0.00000000E+00  0.00000000E+00
  2.05980148E+00  0.00000000E+00  0.00000000E+00  2.05980148E+00  0.00000000E+00
  0.00000000E+00  2.05980148E+00  0.00000000E+00  0.00000000E+00  2.05980148E+00
Num ILSW                                   I              100
ILSW                                       I   N=         100
           0           0           0           0           2           0
           0           0           0           0           0          -1
           5           0           0           0           0           0
           0           0           0           0           0           0
           1           1           0           0           0           0
           0           0      100000           0          -1           0
           0           0           0           0           0           0
           0           0           0           1           0           0
           0 -2000000000           1           0           0           0
           0           0           4          52           0           0
           0           0           0           0           0           0
           0           0           0           2           0           1
           0           0           0           0           0           0
           0           0           0           0           0           0
           0           0           0           0           0           0
           0           0           0           0           0           0
           0           0           0           0
Virial Ratio                               R      0.000000000000000E+00
Total Energy                               R      0.000000000000000E+00
Alpha Orbital Energies                     R   N=          60
 -1.56788991E+01 -1.56751945E+01 -1.47524143E+00 -7.74931177E-01 -6.33059313E-01
 -6.15342704E-01 -6.15342704E-01  1.65732750E-01  1.65732750E-01  4.26258249E-01
  5.60769681E-01  5.61241259E-01  5.61241259E-01  6.73196851E-01  7.33339329E-01
  7.33339329E-01  9.29348252E-01  1.04790667E+00  1.04790667E+00  1.10052688E+00
  1.34817902E+00  1.34817902E+00  1.51589573E+00  1.51589573E+00  1.93115361E+00
  1.94253777E+00  1.94253777E+00  2.26716986E+00  3.16522726E+00  3.16522726E+00
  3.30750642E+00  3.51710874E+00  3.51710874E+00  3.75115241E+00  3.83149558E+00
  3.83149558E+00  3.95434411E+00  3.95434411E+00  3.99519360E+00  3.99519360E+00
  4.40201099E+00  4.45392588E+00  4.45392588E+00  4.77379248E+00  4.77379248E+00
  4.87554254E+00  4.87554254E+00  4.90947421E+00  4.90947421E+00  5.04646070E+00
  5.32704937E+00  5.32704937E+00  5.43151234E+00  5.43151234E+00  5.54689843E+00
  6.20889311E+00  6.89536265E+00  6.89536265E+00  7.07392166E+00  1.70026181E+01
Alpha MO coefficients                      R   N=        3600
  9.75586423E-01 -4.02393248E-02  3.15351711E-02 -2.01537390E-02 -1.97621130E-15
  8.22107076E-07  5.32859590E-03 -2.65152531E-15  1.08304420E-06  4.74936848E-03
 -1.53993770E-15  6.27980903E-07  6.71343519E-03  1.38216841E-04 -1.73730780E-16
  7.12420969E-08 -7.05198225E-20  2.89688190E-19 -5.45195683E-04 -3.32671843E-16
  1.36042908E-07 -1.94627739E-18  4.84767362E-19 -2.26531741E-04 -7.08803928E-17
  2.91540489E-08 -8.40181052E-19  3.67734011E-20  5.54120882E-20  4.31306519E-20
  8.24271421E-04 -5.37828828E-03 -1.16233955E-03 -2.52227776E-04 -2.00858212E-15
  8.22107076E-07  7.16926778E-03 -2.64737082E-15  1.08304420E-06  8.17086161E-03
 -1.53353135E-15  6.27980903E-07  2.55656031E-03 -1.07089116E-03  1.74270638E-16
 -7.12420969E-08 -3.39519849E-19  1.15841132E-19 -1.59929659E-03  3.32003990E-16
 -1.36042908E-07  7.74969037E-19 -6.95438859E-20  7.70384768E-04 -7.13689877E-17
  2.91540489E-08  2.75867647E-19  1.50807755E-19  7.98060849E-20 -2.96706210E-21
  8.24271421E-04 -5.37828828E-03 -1.16233955E-03 -2.52227776E-04 -1.91061961E-15
 -8.22107076E-07 -7.16926778E-03 -2.42771811E-15 -1.08304420E-06 -8.17086161E-03
 -1.44579010E-15 -6.27980902E-07 -2.55656031E-03 -1.07089116E-03 -1.62786551E-16
 -7.12420969E-08 -3.08381398E-19  2.69629436E-18 -1.59929659E-03 -3.07080608E-16
 -1.36042908E-07 -9.97126908E-19  3.62738146E-18 -7.70384768E-04 -6.61447764E-17
 -2.91540489E-08  3.59035690E-19  4.67229941E-19  1.39032166E-19  9.89233945E-20
  9.75586423E-01 -4.02393248E-02  3.15351711E-02 -2.01537390E-02 -1.87869983E-15
 -8.22107076E-07 -5.32859590E-03 -2.47967731E-15 -1.08304420E-06 -4.74936848E-03
 -1.43559645E-15 -6.27980902E-07 -6.71343519E-03  1.38216841E-04  1.62990692E-16
  7.12420969E-08 -6.22393555E-19  1.64425560E-19 -5.45195683E-04  3.11503014E-16
  1.36042908E-07  2.97740597E-18  2.37291981E-20  2.26531741E-04 -6.75086971E-17
 -2.91540489E-08 -3.14253657E-19  3.18923614E-19 -1.12934803E-20 -6.12222141E-20
 -1.76755744E-02 -2.10919647E-01 -5.40877634E-02 -9.75638918E-03 -4.84147444E-13
  1.63823033E-01 -1.38997724E-01 -6.37392916E-13  2.15820531E-01 -1.48749780E-01
 -3.68770986E-13  1.25139096E-01 -4.14916224E-02 -1.74664318E-02 -4.18176778E-14
  1.41965648E-02 -9.22817558E-17 -1.12531486E-17 -1.58757040E-02 -7.98649341E-14
  2.71095609E-02 -3.38383256E-16 -1.88144551E-16 -6.12448351E-03 -1.70594875E-14
  5.80958961E-03  1.15588118E-16 -8.01468302E-17  1.57875092E-17  3.88016091E-17
 -1.76707446E-02 -2.10920308E-01 -5.40877299E-02 -9.75688256E-03 -4.84022544E-13
  1.63823033E-01  1.38997509E-01 -6.37885578E-13  2.15820531E-01  1.48749523E-01
 -3.70217745E-13  1.25139096E-01  4.14914776E-02 -1.74664214E-02  4.20137015E-14
 -1.41965648E-02  8.89359598E-17  6.14212003E-17 -1.58756884E-02  8.04781589E-14
 -2.71095609E-02  2.79817013E-17  1.79957997E-16  6.12448107E-03 -1.72472713E-14
  5.80958961E-03  9.70346047E-17 -2.14891631E-17  7.17318503E-17  1.01485233E-16
  5.58412678E-02  4.30985733E-01  1.16152476E-01  4.19544806E-01 -6.27249107E-14
 -1.48632168E-07 -2.32557693E-01 -8.21946018E-14 -1.95808079E-07 -2.82760837E-01
 -4.74916319E-14 -1.13535287E-07 -1.51674152E-01 -1.06705227E-02 -5.41488765E-15
 -1.28801558E-08  4.61667576E-18 -3.87962529E-17 -1.26132835E-02 -1.03412158E-14
 -2.45957648E-08  3.40458937E-17 -5.06485291E-17 -1.77350180E-03 -2.23258305E-15
 -5.27088207E-09  1.91453379E-17 -3.89181868E-18 -1.88456133E-18 -1.45805698E-18
 -1.22786975E-02 -1.04079826E-01 -2.77537985E-02 -1.41811071E-02 -6.24051868E-14
 -1.48632168E-07  6.49945406E-02 -8.21414716E-14 -1.95808079E-07  7.05767445E-02
 -4.76792686E-14 -1.13535288E-07  4.33401193E-02 -5.87321518E-03  5.39991849E-15
  1.28801560E-08  2.28594315E-18 -4.68329808E-18 -1.24977099E-03  1.03387741E-14
  2.45957650E-08 -6.27784487E-18  8.13631384E-19  2.09146590E-03 -2.20541798E-15
 -5.27088220E-09 -4.47000528E-18 -4.71135960E-18 -8.98731518E-19 -1.40766222E-19
 -1.22786975E-02 -1.04079826E-01 -2.77537985E-02 -1.41811071E-02 -6.23418598E-14
  1.48632167E-07 -6.49945406E-02 -8.23664652E-14  1.95808077E-07 -7.05767445E-02
 -4.72405365E-14  1.13535288E-07 -4.33401193E-02 -5.87321518E-03 -5.39125497E-15
  1.28801559E-08  3.71735712E-18 -7.19991283E-17 -1.24977099E-03 -1.03224730E-14
  2.45957648E-08 -9.58487839E-19 -1.01928134E-16 -2.09146590E-03 -2.22363412E-15
  5.27088223E-09  9.27016617E-19 -1.18298407E-17 -1.28152430E-18 -5.71701699E-19
  5.58412678E-02  4.30985733E-01  1.16152476E-01  4.19544806E-01 -6.21763751E-14
  1.48632167E-07  2.32557693E-01 -8.18083894E-14  1.95808077E-07  2.82760837E-01
 -4.74849744E-14  1.13535286E-07  1.51674152E-01 -1.06705227E-02  5.37883260E-15
 -1.28801558E-08  3.53379186E-18 -8.59425379E-18 -1.26132835E-02  1.03225653E-14
 -2.45957646E-08 -5.11993297E-17 -3.15093546E-18  1.77350180E-03 -2.18944749E-15
  5.27088197E-09  7.93372415E-18 -6.18213884E-18 -1.41944935E-19  6.43078512E-19
  1.76707446E-02  2.10920308E-01  5.40877299E-02  9.75688256E-03  5.31737848E-13
  1.63823033E-01  1.38997509E-01  7.00946245E-13  2.15820531E-01  1.48749523E-01
  4.07056333E-13  1.25139096E-01  4.14914776E-02  1.74664214E-02  4.62143344E-14
  1.41965648E-02 -8.29250402E-17  2.40533590E-17  1.58756884E-02  8.82315054E-14
  2.71095609E-02 -2.92963477E-16 -1.32157426E-16  6.12448107E-03  1.89789590E-14
  5.80958961E-03  1.15038712E-16 -7.39523084E-17  1.19325097E-17  3.53885826E-17
  1.76755744E-02  2.10919647E-01  5.40877634E-02  9.75638918E-03  5.31741318E-13
  1.63823033E-01 -1.38997724E-01  7.00231539E-13  2.15820531E-01 -1.48749780E-01
  4.05692840E-13  1.25139096E-01 -4.14916224E-02  1.74664318E-02 -4.60048666E-14
 -1.41965648E-02  1.00813609E-16  6.31868064E-17  1.58757040E-02 -8.76252196E-14
 -2.71095609E-02 -8.05982891E-18  1.78086373E-16 -6.12448351E-03  1.87699249E-14
  5.80958961E-03  9.98157096E-17 -1.74435962E-17  7.02211759E-17  1.02234557E-16
 -5.72261659E-14 -8.36223106E-13 -2.12928555E-13  6.89911286E-14  2.31680755E-01
 -3.36328188E-14 -6.88346376E-13  3.05216321E-01 -4.52832216E-14 -7.47142848E-13
  1.76973407E-01 -2.58577881E-14 -2.33163840E-13 -8.14637002E-14  2.00769745E-02
 -3.06785847E-15  2.34947670E-17  2.78747434E-16 -7.32075432E-14  3.83387086E-02
 -5.67341313E-15  3.36180099E-16 -2.49673656E-16 -2.66670739E-14  8.21600041E-03
 -1.14990482E-15  6.98652029E-17 -2.96185712E-17 -1.25790361E-16 -4.78973921E-18
 -5.78906624E-14 -8.38922875E-13 -2.14283008E-13  6.50134110E-14  2.31680755E-01
 -3.39520079E-14  6.88928004E-13  3.05216321E-01 -4.44227988E-14  7.48268962E-13
  1.76973407E-01 -2.56877852E-14  2.35789587E-13 -8.13349212E-14 -2.00769745E-02
  3.20620266E-15  1.82194730E-18 -6.09576276E-17 -7.35444964E-14 -3.83387086E-02
  5.13044468E-15 -1.63727554E-16 -4.59782876E-17  2.86181006E-14  8.21600041E-03
 -7.58507840E-16  7.49895370E-17  4.76928287E-17 -7.84305091E-17 -1.94155549E-18
 -1.06796368E+00 -2.11954381E+00  1.76634898E-01 -1.87373025E+00 -9.14062233E-02
 -2.14206003E-01 -1.76129194E-01 -3.23859097E-01 -7.67711922E-01 -2.04335597E+00
 -6.29664770E-02 -1.30362714E-01 -7.36665812E-01 -3.85921862E-01 -2.10915654E-01
 -4.92569661E-01  5.58310522E-02 -4.53253936E-02 -7.14685955E-01 -2.23882943E-01
 -5.13781417E-01  2.37400868E-02 -2.33966561E-02 -1.82122318E-01 -2.15576164E-01
 -4.92201002E-01  6.91662160E-02 -5.72435346E-02  2.75216826E-02  2.10095577E-02
  1.06691174E+00  2.12001693E+00 -1.75275741E-01  1.87277598E+00  9.43620869E-02
  2.03090755E-01 -1.74505894E-01  3.29673036E-01  7.80628583E-01 -2.04259108E+00
  5.78105018E-02  1.23600130E-01 -7.35162950E-01  3.93482697E-01 -2.10295780E-01
 -4.82429416E-01 -4.19144976E-02  4.12435725E-02  7.10615267E-01 -2.20323035E-01
 -5.21701859E-01 -2.30383578E-02  1.53158982E-02 -1.94299882E-01  2.08460097E-01
  4.87186271E-01  5.66860777E-02 -4.37431956E-02 -9.82040366E-03 -1.02807418E-02
  1.10797370E+00  2.20601897E+00 -1.70095425E-01  1.98782492E+00 -2.27481921E-01
 -1.88976659E-02  1.85492387E-01 -8.18687219E-01 -5.76139011E-02  2.14056724E+00
 -1.41758778E-01 -1.50220317E-02  7.79943527E-01  4.21787595E-01 -5.27498322E-01
 -3.90709992E-02  6.16679688E-02 -5.54739750E-03  7.53415513E-01 -5.53320916E-01
 -4.24292182E-02  2.73816701E-02  4.66043141E-03  2.18052674E-01 -5.28554111E-01
 -4.35359186E-02  8.15948215E-02 -6.32738105E-03 -1.39025886E-02 -8.26024936E-03
 -1.11314120E+00 -2.21342290E+00  1.72513146E-01 -1.98466027E+00  2.25039405E-01
  2.18879836E-02  1.85839648E-01  8.28129931E-01  5.93501598E-02  2.14151614E+00
  1.35210820E-01  1.29651120E-02  7.78209633E-01 -4.18597776E-01 -5.21560943E-01
 -4.15523987E-02 -5.60864964E-02 -5.83039853E-03 -7.49260820E-01 -5.53546008E-01
 -3.92294484E-02 -2.14783458E-02  1.13938812E-03  2.13649169E-01  5.24081163E-01
  3.90987695E-02  6.17433105E-02 -6.41938223E-04  8.26416667E-03 -1.72812050E-03
  1.85051628E-02  7.63501900E-02  1.30367429E-01  6.75504071E+00  4.46384918E-05
  2.60091059E-04 -6.34984955E-02 -2.45903912E-04 -1.17690580E-03  6.76363943E-01
  1.02204366E-04  4.50444527E-04  2.27179333E+00  1.57853447E-02 -1.46672217E-05
 -7.65406646E-04 -6.00239109E-04  4.53671018E-05  9.21029906E-02 -2.49923995E-04
  2.47271794E-04  2.22149218E-04  2.15303863E-04 -6.03904762E-02 -6.63616751E-05
 -9.54779286E-04  8.47355373E-04  1.48970447E-04 -4.77429922E-04 -2.49949070E-04
 -1.57915543E-02 -1.64512591E-02  2.24061793E-01 -6.30529510E+00 -4.82326972E-05
 -1.54689450E-04  1.51067883E-01  3.63478242E-04  9.25708038E-04 -4.23854877E-01
 -1.66709182E-04 -8.70598590E-04  4.40774130E+00  5.03956895E-02 -9.85086288E-05
  1.04924930E-03  5.00239069E-04  6.61274756E-04 -7.41852184E-01 -5.84209899E-05
 -1.98801203E-03 -5.52470765E-04 -5.50602229E-04  1.02532870E-01  1.39228127E-04
  3.76388407E-04  2.58909768E-04  5.87413776E-05  1.03237084E-04  1.60783092E-04
  1.08898777E-02  3.83646961E-03 -2.27745322E-01  6.47755022E+00 -2.75485954E-04
 -6.58206904E-03  1.51458089E-01  2.19207185E-03  1.29011490E-02 -3.87801120E-01
  2.52881280E-04 -1.55879019E-02  4.47930397E+00 -5.56329823E-02 -1.30884321E-03
  3.28603412E-03  5.93295308E-03 -3.10815480E-04  7.89208923E-01  4.65236040E-03
 -1.29573466E-02  2.06895303E-04 -1.63601215E-03  1.10844833E-01  1.43534700E-04
  5.04788557E-03 -3.33794387E-03 -3.58368802E-04 -1.18719865E-03 -2.81217338E-03
 -4.02368561E-02 -1.17354856E-01 -1.34731922E-01 -6.89247323E+00  3.40258678E-04
 -1.75285355E-03 -6.25788933E-02 -2.71424103E-03  2.90210911E-03  7.14750365E-01
 -6.00539958E-04  7.40899990E-03  2.31838863E+00 -1.87441454E-02  3.37939604E-04
  2.32142054E-03  1.10224712E-04 -8.36526591E-06 -9.86536302E-02  2.01094807E-03
 -4.63283139E-03  5.35999091E-04  4.74263305E-04 -6.15484232E-02 -5.98063877E-04
 -7.94552490E-04 -7.31630744E-04 -4.41647741E-04  1.94262275E-04  1.36002047E-04
  1.09827790E-01  2.02384645E-01 -3.26219964E-02  2.68033375E+00  7.08697707E-03
 -1.09171918E-02 -7.42051389E-02 -1.66620940E-01  2.68942868E-01  4.60374645E-01
 -2.76274537E-01  4.50804998E-01  9.22028805E-01  2.28271851E-02 -2.65516119E-04
 -6.13871908E-04 -5.31264074E-03 -6.28219141E-03  7.60728630E-02 -1.88371081E-01
  3.04196138E-01 -6.93441835E-02 -1.36522981E-01 -3.63199495E-02 -3.26453484E-02
  5.16794663E-02 -5.06877769E-02 -1.00100381E-01  1.66258422E-02 -1.99615650E-03
  5.10272766E-01  9.42770633E-01 -2.08321008E-01 -3.43496459E+00 -3.71023922E-02
  6.20685830E-02 -4.43937035E-02 -1.24729787E-01  2.08177807E-01  4.51818892E-01
  6.15961587E-01 -1.00776185E+00  1.23438844E+00 -5.43095401E-02  2.32054378E-02
 -3.96631908E-02 -1.68760972E-01 -3.27762863E-01 -1.89283199E-01 -2.01794328E-01
  3.28412020E-01  3.20500949E-01  6.24313106E-01  2.14149685E-02  2.20423394E-02
 -3.35191837E-02 -3.87004103E-02 -7.47566906E-02 -3.24046080E-01 -2.32514495E-02
  9.94787941E-02  1.82895524E-01 -2.94330752E-02  2.67988034E+00 -9.33645545E-03
 -1.14677639E-02 -7.50302723E-02  2.01447369E-01  2.28066632E-01  4.45105554E-01
  3.45021369E-01  3.99519913E-01  9.21563437E-01  2.11892287E-02 -2.11400937E-03
 -5.59120043E-03 -4.28485629E-03  8.90470606E-03  7.16521094E-02  2.30709621E-01
  2.63084338E-01 -2.27255118E-02  1.51640427E-01 -3.55500952E-02  3.83649968E-02
  4.08045348E-02 -1.84269912E-02  1.11809852E-01 -1.69418470E-02  7.40111978E-03
  5.25622355E-01  9.70221076E-01 -2.15889958E-01 -3.43961426E+00  4.41472018E-02
  5.30210923E-02 -4.07743603E-02  1.66093605E-01  2.00884602E-01  4.33464810E-01
 -7.72151978E-01 -8.98360256E-01  1.23383102E+00 -5.37851349E-02 -3.03115850E-02
 -3.64673714E-02 -5.78182433E-02  3.69210841E-01 -1.84143935E-01  2.44325565E-01
  2.79621747E-01  1.05174892E-01 -6.90798130E-01  2.31896292E-02 -2.72021055E-02
 -2.61655854E-02 -1.30583758E-02  7.85394252E-02  2.72354250E-01 -1.69283491E-01
 -6.64811050E-01 -1.16912037E+00  3.37240172E-01  4.03299093E+00  4.40552274E-03
  2.35435124E-02 -8.06552694E-02  3.93077958E-01 -7.33710596E-02  5.63743588E-01
 -1.34506268E+00  1.29003025E-01  1.45372519E+00  6.04386245E-02  4.10898323E-02
 -2.13660748E-03 -4.29244124E-01  7.51342427E-02  2.76879735E-01 -4.56232987E-01
  2.71837509E-02  5.96764015E-01 -9.54024994E-02  2.59102813E-02 -8.00730812E-02
 -2.19314558E-03  1.07946386E-01 -2.53681419E-02 -1.25209473E-01  2.84124383E-02
 -1.49469650E-01 -2.75790884E-01  3.06109012E-02 -3.12972114E+00 -2.48439480E-02
  1.96463081E-03 -8.31757551E-02  3.39674385E-01 -1.40115796E-02  5.52040390E-01
  5.89763871E-01 -5.40653117E-02  1.07203363E+00 -2.90920794E-02  5.26300842E-03
 -5.92372917E-03 -1.18676136E-02  2.32315117E-03 -8.92803293E-02 -3.91647208E-01
  2.46617539E-02 -1.33477337E-01  2.28731408E-02 -3.91772896E-02  6.31037204E-02
  3.52965391E-04  1.02895038E-01 -1.94097695E-02  6.67515391E-03 -3.00172049E-03
  6.62472967E-01  1.16572924E+00 -3.39981741E-01 -4.02610668E+00  5.08567668E-03
  4.42393447E-02  3.91389954E-02 -4.41493979E-02 -5.12378073E-01 -5.35711725E-01
  8.51548880E-02  1.34010842E+00 -1.44090619E+00 -7.66986074E-02 -7.92495826E-03
 -3.17200388E-02 -4.61414489E-01  6.33338870E-02 -3.06395275E-01  1.49053548E-02
  2.91144140E-01  5.80088040E-01 -6.51557210E-02 -8.92064595E-02 -4.42247211E-03
  6.82481481E-02  9.40151367E-04 -4.59227059E-04  4.47498357E-03 -8.16898509E-02
  1.41158600E-01  2.63454175E-01 -3.00173819E-03  3.12370917E+00  2.45111128E-03
  1.61533660E-02  6.91562812E-02 -5.91735487E-03 -2.31436202E-01 -5.48881429E-01
 -3.56412288E-02 -5.68453385E-01 -1.07266917E+00  3.83619614E-02 -6.56256474E-03
 -2.59185469E-02 -5.73160561E-05 -6.93803212E-04  9.60461335E-02  1.44722078E-02
  3.14303218E-01 -1.21628221E-01  1.34730331E-02  2.76848958E-02  2.27569424E-03
 -3.75272647E-02  7.81377042E-02 -7.97998252E-03 -2.55981853E-04  5.50697161E-03
 -6.48338482E-01 -1.14382390E+00  3.25749814E-01  3.96990394E+00 -4.84702719E-03
  2.68191377E-02 -7.16363263E-02 -3.98783730E-01 -1.53204751E-02  5.51285584E-01
  1.33853022E+00 -8.38303957E-02  1.42867440E+00  6.52337817E-02 -3.58017787E-02
  5.76845798E-03 -4.45478425E-01  6.75410744E-02  2.68750538E-01  4.32535233E-01
 -4.68559726E-02  6.06643039E-01 -1.02793638E-01  3.14934868E-02  7.95738289E-02
 -1.39942356E-02  9.80250968E-02 -9.46141986E-03  1.21277915E-01 -3.48269184E-02
 -1.45305184E-01 -2.68940663E-01  2.86970194E-02 -3.08193917E+00  2.29439896E-02
 -2.42095186E-03 -8.02459267E-02 -3.26195384E-01  4.18313866E-02  5.44499014E-01
 -5.84907109E-01  3.95514442E-02  1.05657196E+00 -3.04815880E-02 -6.36209629E-03
 -5.21326816E-03 -8.84057162E-03  1.12334261E-03 -8.97923969E-02  3.81488414E-01
 -3.87895726E-02 -1.34557820E-01  2.16497039E-02 -3.69818191E-02 -6.13925653E-02
  1.07429320E-02  1.00642565E-01 -1.47739787E-02 -6.47123450E-03  7.26757352E-04
  6.29139600E-01  1.12047725E+00 -3.03987143E-01 -3.87435361E+00  4.14664917E-03
  2.32395754E-02  5.97203372E-02  2.89367666E-02  3.49614984E-01 -5.15316004E-01
 -1.20129876E-01 -1.29665223E+00 -1.39563895E+00 -5.82560883E-02  2.55574148E-03
  6.24462787E-02 -4.15417634E-01  7.47999676E-02 -2.48432747E-01 -4.13222709E-02
 -4.20726758E-01  6.25116702E-01 -1.19264510E-01 -3.79205591E-02 -7.41542614E-03
 -4.53938112E-02  6.21106890E-02 -1.61019155E-02  6.22713919E-02  1.83180223E-01
  1.32149583E-01  2.42933070E-01 -2.81259151E-02  3.00954345E+00 -1.77896671E-03
 -2.13454102E-02  7.96192305E-02  3.29031563E-02  3.24960704E-01 -5.18379922E-01
  5.29781752E-02  5.70287616E-01 -1.03194128E+00  2.76373748E-02 -4.79707305E-04
  1.02906372E-02 -8.43941247E-03  2.83491271E-03  8.38241896E-02 -3.64932642E-02
 -3.74768687E-01 -1.36250774E-01  2.62921510E-02  3.66784508E-02  6.43721763E-03
  5.67012429E-02  9.99046480E-02 -2.02941572E-02 -3.84665823E-03 -1.16499552E-02
 -6.33374981E-01 -7.88172577E-01  6.89703897E-01  6.47975217E-01 -3.49566836E-01
  4.79624374E-01  1.00863771E-01  5.77458013E-01 -7.86686910E-01 -1.62078576E-01
  2.83723501E-02 -5.16762627E-02  2.70258294E-01  3.26846014E-02 -6.51528158E-02
  6.05215526E-02  1.49032556E-02 -1.80316162E-03  2.86726453E-01  3.84048563E-01
 -6.03588186E-01  9.90157575E-02  4.84886711E-01  2.32216287E-01 -3.38927597E-02
  5.57111599E-04  2.12411397E-01  3.48912244E-01 -3.56709264E-01 -2.13763417E-01
  7.55475333E-02  1.29196704E-01 -1.52146348E-01 -4.91515748E-01  9.44759743E-03
 -2.45280929E-02  5.25082963E-02 -3.23921959E-01  4.79636146E-01 -6.02646514E-02
 -7.63243659E-02  1.15062178E-01  1.59444754E-01 -2.17420235E-02  6.02187677E-02
 -9.01839437E-02 -1.69972227E-02 -3.17178731E-02  1.56848910E-02  2.37579582E-01
 -3.56818854E-01 -3.63716460E-02 -1.21171798E-01  4.03052730E-02 -8.45840683E-02
  1.26499008E-01  5.18635805E-02  1.28620791E-01  6.30773425E-03  9.39252008E-03
 -1.02598023E-01 -1.90262726E-01  2.95178852E-02 -2.67864005E+00 -1.12763606E-04
 -1.18436883E-02  7.32822920E-02  2.82267707E-02  3.08482282E-01 -4.52730288E-01
  4.25915044E-02  5.23960827E-01 -9.21677238E-01 -2.38194512E-02  2.28474376E-03
 -2.32691594E-04  9.84006824E-03 -4.00821576E-04 -7.55010513E-02  3.04937140E-02
  3.48412921E-01  1.48277418E-01 -2.30626293E-02  3.34742102E-02  7.18400779E-03
  5.97101467E-02  1.07764496E-01 -1.59399091E-02 -4.45755837E-03 -1.89997210E-02
 -5.13860420E-01 -9.49361988E-01  2.10695742E-01  3.43068997E+00  4.19749477E-03
  7.26641195E-02  4.07815199E-02  1.64773122E-02  2.48116211E-01 -4.42223544E-01
 -9.43167167E-02 -1.17427379E+00 -1.23256832E+00  5.60144526E-02 -3.65382621E-03
 -4.64481368E-02  3.65696658E-01 -5.74312840E-02  1.84559504E-01  3.26482900E-02
  3.76962651E-01 -6.91798267E-01  1.11236410E-01 -2.16835334E-02 -7.40286135E-03
 -3.96551099E-02  8.07863001E-02 -1.13347314E-02  7.64929442E-02  3.16927900E-01
 -1.15390458E+00 -2.30744123E+00  1.58238154E-01 -2.13042483E+00 -1.37501928E-01
  1.97207193E-01 -1.98653604E-01 -4.77731367E-01  6.28884348E-01 -2.25582087E+00
 -8.74710698E-02  1.19091702E-01 -8.33847784E-01 -4.56082436E-01 -3.07559033E-01
  4.17977263E-01  4.25402783E-03  3.74539525E-02 -7.95263274E-01 -3.24932039E-01
  4.24244941E-01  8.62109753E-03  2.70741618E-02 -2.48031453E-01 -3.05886575E-01
  4.11764881E-01  8.64345807E-03  4.36815661E-02  5.02534774E-03 -1.82347031E-02
  1.17168231E+00  2.32790003E+00 -1.79405412E-01  2.12449723E+00  1.29270876E-01
 -1.71674077E-01 -1.92794916E-01  4.87584047E-01 -6.52330949E-01 -2.26308834E+00
  8.08713979E-02 -1.06596824E-01 -8.32791094E-01  4.48390133E-01 -3.05485663E-01
  4.08608773E-01 -1.36955284E-02 -4.49788136E-02  7.98231955E-01 -3.27495623E-01
  4.37417501E-01 -8.52537585E-03 -2.28504816E-02 -2.37076906E-01  3.10858082E-01
 -4.16984685E-01  1.84176101E-02  5.61541713E-02 -1.22730224E-02 -9.18304612E-04
 -2.66277577E-01 -4.78262752E-01  9.07120871E-02 -8.94148152E-01  5.08444658E-02
 -8.27412640E-02  6.00091440E-02 -2.05188520E-01  3.44343728E-01 -4.00591982E-01
 -1.21193350E-01  1.97744417E-01 -2.96178091E-01  1.60762120E-03 -1.47498839E-04
  5.03217848E-03  2.29112090E-02  3.70324438E-02 -7.53542799E-02 -1.84977120E-01
  3.07011952E-01  6.42212786E-03  1.86574510E-02  3.48573585E-02 -3.00067719E-02
  5.36111158E-02  4.06398294E-02  7.79856535E-02 -1.48561688E-02 -1.60931966E-03
 -3.05067125E-01 -2.72113456E-01  4.39056546E-01  1.10799063E+00  1.25694935E-01
 -2.09761977E-01  3.97369736E-01 -1.07795950E-01  1.73246162E-01 -6.66664600E-01
  1.94882534E-01 -3.20315273E-01 -4.69060966E-01 -5.24703765E-02  5.13848062E-02
 -7.83306152E-02  4.18159656E-02  8.05635456E-02  3.13983471E-01 -4.97064456E-01
  8.18458332E-01  7.92790157E-02  1.50484607E-01  2.22273292E-01  1.59289521E-02
 -3.39602448E-02  2.62124760E-01  5.03793237E-01  2.16069073E-01  1.43361698E-02
  2.66910621E-01  2.06296500E-01 -4.19111112E-01 -8.11933954E-01  1.92106545E-01
  9.10842282E-02  3.83287968E-01 -1.08115053E-01 -1.17682804E-02 -6.05693863E-01
  2.59121145E-01  5.84612782E-02 -3.61983165E-01  4.45090392E-02 -9.66830412E-02
 -7.12644926E-02  8.32371180E-02 -5.48512638E-02 -2.71639850E-01  8.97034490E-01
  3.79306209E-01  1.34219972E-01  2.31731167E-01  2.21081790E-01  4.74702926E-02
  7.71509397E-03 -4.47218500E-01 -3.23129196E-01 -9.15220070E-02 -1.90475720E-01
  2.46295887E-01  4.41029122E-01 -9.09921542E-02  6.61377915E-01  9.19327356E-02
  3.61552949E-02  5.38839540E-02 -3.82566094E-01 -1.64605220E-01 -3.48913117E-01
 -1.82413084E-01 -5.87276819E-02 -2.15613571E-01 -1.99468100E-03  1.20990311E-02
  6.56624129E-03  3.48485086E-02  2.81551244E-02  6.51376814E-02  3.30645443E-01
  1.35334420E-01  1.36853366E-02 -1.86655829E-02  2.99032235E-02 -6.22903212E-02
 -2.67462186E-02 -6.84639822E-02 -3.31438999E-02  8.71163124E-03  1.31355375E-02
  1.00404491E-01  1.85879204E-01 -2.88699343E-02  2.68002846E+00 -1.16053395E-02
  5.87084871E-03 -7.37393186E-02  2.86350019E-01 -1.14999434E-01  4.49330005E-01
  4.86660893E-01 -2.03778894E-01  9.22024509E-01  2.25233931E-02 -9.54645553E-04
  3.21697448E-03  6.90829562E-03 -5.98565650E-03  7.34284906E-02  3.26075681E-01
 -1.33280766E-01  1.04870679E-01 -1.09585075E-01 -3.45280389E-02  5.51197657E-02
 -2.08131929E-02  7.71439996E-02 -7.99356138E-02  7.36559585E-03 -1.44544221E-02
  5.18914909E-01  9.58086734E-01 -2.12940205E-01 -3.43454154E+00  6.45247331E-02
 -2.88151980E-02 -4.03410376E-02  2.30418805E-01 -1.01496366E-01  4.38231854E-01
 -1.08931894E+00  4.56993879E-01  1.23303887E+00 -5.47894622E-02 -4.23101323E-02
  1.78715503E-02  2.58507387E-01 -2.66296273E-01 -1.84148941E-01  3.48124110E-01
 -1.42322208E-01 -4.90128612E-01  4.99807202E-01  2.23248908E-02 -3.82019935E-02
  1.10991397E-02  5.56023851E-02 -5.81857613E-02 -1.19214484E-01  3.01407034E-01