[Molden Format]
[N_Atoms]
                    2
[Atoms] (AU)
N1          1      7           0.00000000      0.00000000      0.00000000
N2          2      7           0.00000000      0.00000000      1.51178090
[5D]
[7F]
[Charge] (Mulliken)
   0.0000000000000000     
   0.0000000000000000     
[GTO] (AU)
   1
   s  10
  1.142000000E+04  5.229996559E-04
  1.712000000E+03  4.044997339E-03
  3.893000000E+02  2.077498633E-02
  1.100000000E+02  8.072694689E-02
  3.557000000E+01  2.330738467E-01
  1.254000000E+01  4.335007148E-01
  4.644000000E+00  3.474717714E-01
  1.293000000E+00  4.126197285E-02
  5.118000000E-01 -8.507994403E-03
  1.787000000E-01  2.383998432E-03
   s  10
  1.142000000E+04 -1.149999544E-04
  1.712000000E+03 -8.949996452E-04
  3.893000000E+02 -4.623998167E-03
  1.100000000E+02 -1.852799265E-02
  3.557000000E+01 -5.733897727E-02
  1.254000000E+01 -1.320759476E-01
  4.644000000E+00 -1.725099316E-01
  1.293000000E+00  1.518139398E-01
  5.118000000E-01  5.999437621E-01
  1.787000000E-01  3.874618464E-01
   s   1
  1.293000000E+00  1.000000000E+00
   s   1
  1.787000000E-01  1.000000000E+00
   p   5
  2.663000000E+01  1.467000345E-02
  5.948000000E+00  9.176402155E-02
  1.742000000E+00  2.986830701E-01
  5.550000000E-01  4.984871171E-01
  1.725000000E-01  3.370230791E-01
   p   1
  5.550000000E-01  1.000000000E+00
   p   1
  1.725000000E-01  1.000000000E+00
   d   1
  1.654000000E+00  1.000000000E+00
   d   1
  4.690000000E-01  1.000000000E+00
   f   1
  1.093000000E+00  1.000000000E+00
 
   2
   s  10
  1.142000000E+04  5.229996559E-04
  1.712000000E+03  4.044997339E-03
  3.893000000E+02  2.077498633E-02
  1.100000000E+02  8.072694689E-02
  3.557000000E+01  2.330738467E-01
  1.254000000E+01  4.335007148E-01
  4.644000000E+00  3.474717714E-01
  1.293000000E+00  4.126197285E-02
  5.118000000E-01 -8.507994403E-03
  1.787000000E-01  2.383998432E-03
   s  10
  1.142000000E+04 -1.149999544E-04
  1.712000000E+03 -8.949996452E-04
  3.893000000E+02 -4.623998167E-03
  1.100000000E+02 -1.852799265E-02
  3.557000000E+01 -5.733897727E-02
  1.254000000E+01 -1.320759476E-01
  4.644000000E+00 -1.725099316E-01
  1.293000000E+00  1.518139398E-01
  5.118000000E-01  5.999437621E-01
  1.787000000E-01  3.874618464E-01
   s   1
  1.293000000E+00  1.000000000E+00
   s   1
  1.787000000E-01  1.000000000E+00
   p   5
  2.663000000E+01  1.467000345E-02
  5.948000000E+00  9.176402155E-02
  1.742000000E+00  2.986830701E-01
  5.550000000E-01  4.984871171E-01
  1.725000000E-01  3.370230791E-01
   p   1
  5.550000000E-01  1.000000000E+00
   p   1
  1.725000000E-01  1.000000000E+00
   d   1
  1.654000000E+00  1.000000000E+00
   d   1
  4.690000000E-01  1.000000000E+00
   f   1
  1.093000000E+00  1.000000000E+00
 
[MO]
Sym=     1a  
Ene=   -15.7430
Spin= Alpha
Occup=    2.00000
   1         0.70428050
   2         0.00913016
   3        -0.00158753
   4         0.00196880
   5         0.00000000
   6        -0.00000000
   7         0.00521115
   8        -0.00000000
   9         0.00000000
  10        -0.00009100
  11        -0.00000000
  12         0.00000000
  13        -0.00024256
  14        -0.00000000
  15        -0.00000000
  16         0.00000000
  17         0.00000000
  18         0.00000000
  19        -0.00000000
  20        -0.00000000
  21         0.00000000
  22        -0.00000000
  23         0.00000000
  24        -0.00000000
  25        -0.00000000
  26         0.00000000
  27         0.00000000
  28        -0.00000000
  29        -0.00000000
  30        -0.00000000
  31         0.70428050
  32         0.00913016
  33        -0.00158753
  34         0.00196880
  35        -0.00000000
  36         0.00000000
  37        -0.00521115
  38         0.00000000
  39        -0.00000000
  40         0.00009100
  41         0.00000000
  42        -0.00000000
  43         0.00024256
  44         0.00000000
  45        -0.00000000
  46         0.00000000
  47        -0.00000000
  48        -0.00000000
  49         0.00000000
  50        -0.00000000
  51         0.00000000
  52         0.00000000
  53         0.00000000
  54        -0.00000000
  55         0.00000000
  56        -0.00000000
  57         0.00000000
  58         0.00000000
  59        -0.00000000
  60        -0.00000000
Sym=     2a  
Ene=   -15.5930
Spin= Alpha
Occup=    2.00000
   1        -0.70792944
   2         0.00163101
   3         0.00170408
   4        -0.00191621
   5         0.00000000
   6         0.00000000
   7         0.00505288
   8        -0.00000000
   9        -0.00000000
  10        -0.00008824
  11        -0.00000000
  12        -0.00000000
  13        -0.00023520
  14        -0.00000000
  15        -0.00000000
  16        -0.00000000
  17         0.00000000
  18         0.00000000
  19        -0.00000000
  20        -0.00000000
  21        -0.00000000
  22        -0.00000000
  23         0.00000000
  24         0.00000000
  25        -0.00000000
  26        -0.00000000
  27         0.00000000
  28         0.00000000
  29        -0.00000000
  30         0.00000000
  31         0.70792944
  32        -0.00163101
  33        -0.00170408
  34         0.00191621
  35        -0.00000000
  36         0.00000000
  37         0.00505288
  38         0.00000000
  39         0.00000000
  40        -0.00008824
  41         0.00000000
  42        -0.00000000
  43        -0.00023520
  44         0.00000000
  45        -0.00000000
  46        -0.00000000
  47         0.00000000
  48         0.00000000
  49         0.00000000
  50        -0.00000000
  51        -0.00000000
  52        -0.00000000
  53        -0.00000000
  54        -0.00000000
  55         0.00000000
  56         0.00000000
  57         0.00000000
  58         0.00000000
  59         0.00000000
  60         0.00000000
Sym=     3a  
Ene=    -1.6406
Spin= Alpha
Occup=    2.00000
   1        -0.10037949
   2         0.50365889
   3         0.00528704
   4         0.00265256
   5         0.00000000
   6         0.00000000
   7         0.13532981
   8        -0.00000000
   9        -0.00000000
  10        -0.00236318
  11        -0.00000000
  12        -0.00000000
  13        -0.00629924
  14        -0.00000000
  15        -0.00000000
  16        -0.00000000
  17         0.00000000
  18         0.00000000
  19        -0.00000000
  20        -0.00000000
  21        -0.00000000
  22        -0.00000000
  23         0.00000000
  24        -0.00000000
  25        -0.00000000
  26        -0.00000000
  27         0.00000000
  28         0.00000000
  29         0.00000000
  30        -0.00000000
  31        -0.10037949
  32         0.50365889
  33         0.00528704
  34         0.00265256
  35        -0.00000000
  36        -0.00000000
  37        -0.13532981
  38         0.00000000
  39         0.00000000
  40         0.00236318
  41         0.00000000
  42         0.00000000
  43         0.00629924
  44         0.00000000
  45        -0.00000000
  46        -0.00000000
  47        -0.00000000
  48        -0.00000000
  49         0.00000000
  50        -0.00000000
  51        -0.00000000
  52         0.00000000
  53        -0.00000000
  54        -0.00000000
  55         0.00000000
  56         0.00000000
  57        -0.00000000
  58         0.00000000
  59         0.00000000
  60        -0.00000000
Sym=     4a  
Ene=    -0.8604
Spin= Alpha
Occup=    2.00000
   1        -0.00000000
   2        -0.00000000
   3         0.00000000
   4        -0.00000000
   5         0.39989221
   6         0.45634950
   7        -0.00000000
   8        -0.00698308
   9        -0.00796896
  10        -0.00000000
  11        -0.01861392
  12        -0.02124185
  13        -0.00000000
  14        -0.00000000
  15         0.00000000
  16        -0.00000000
  17         0.00000000
  18         0.00000000
  19        -0.00000000
  20         0.00000000
  21        -0.00000000
  22         0.00000000
  23         0.00000000
  24        -0.00000000
  25         0.00000000
  26        -0.00000000
  27         0.00000000
  28         0.00000000
  29         0.00000000
  30         0.00000000
  31         0.00000000
  32         0.00000000
  33        -0.00000000
  34         0.00000000
  35         0.39989221
  36         0.45634950
  37        -0.00000000
  38        -0.00698308
  39        -0.00796896
  40        -0.00000000
  41        -0.01861392
  42        -0.02124185
  43        -0.00000000
  44         0.00000000
  45         0.00000000
  46        -0.00000000
  47        -0.00000000
  48        -0.00000000
  49         0.00000000
  50         0.00000000
  51        -0.00000000
  52         0.00000000
  53        -0.00000000
  54        -0.00000000
  55        -0.00000000
  56         0.00000000
  57         0.00000000
  58         0.00000000
  59         0.00000000
  60        -0.00000000
Sym=     5a  
Ene=    -0.8604
Spin= Alpha
Occup=    2.00000
   1        -0.00000000
   2        -0.00000000
   3         0.00000000
   4        -0.00000000
   5        -0.45634950
   6         0.39989221
   7         0.00000000
   8         0.00796896
   9        -0.00698308
  10        -0.00000000
  11         0.02124185
  12        -0.01861392
  13        -0.00000000
  14        -0.00000000
  15        -0.00000000
  16         0.00000000
  17         0.00000000
  18         0.00000000
  19        -0.00000000
  20        -0.00000000
  21         0.00000000
  22         0.00000000
  23         0.00000000
  24        -0.00000000
  25        -0.00000000
  26         0.00000000
  27         0.00000000
  28         0.00000000
  29         0.00000000
  30         0.00000000
  31         0.00000000
  32         0.00000000
  33         0.00000000
  34         0.00000000
  35        -0.45634950
  36         0.39989221
  37         0.00000000
  38         0.00796896
  39        -0.00698308
  40        -0.00000000
  41         0.02124185
  42        -0.01861392
  43        -0.00000000
  44         0.00000000
  45        -0.00000000
  46         0.00000000
  47        -0.00000000
  48        -0.00000000
  49         0.00000000
  50        -0.00000000
  51         0.00000000
  52        -0.00000000
  53        -0.00000000
  54        -0.00000000
  55         0.00000000
  56        -0.00000000
  57         0.00000000
  58         0.00000000
  59         0.00000000
  60        -0.00000000
Sym=     6a  
Ene=    -0.8152
Spin= Alpha
Occup=    2.00000
   1         0.03609522
   2        -0.46357295
   3        -0.00473204
   4        -0.00259457
   5         0.00000000
   6         0.00000000
   7         0.49089409
   8        -0.00000000
   9        -0.00000000
  10        -0.00857219
  11        -0.00000000
  12        -0.00000000
  13        -0.02284981
  14         0.00000000
  15        -0.00000000
  16        -0.00000000
  17        -0.00000000
  18        -0.00000000
  19         0.00000000
  20        -0.00000000
  21        -0.00000000
  22         0.00000000
  23        -0.00000000
  24         0.00000000
  25        -0.00000000
  26        -0.00000000
  27        -0.00000000
  28        -0.00000000
  29         0.00000000
  30         0.00000000
  31        -0.03609522
  32         0.46357295
  33         0.00473204
  34         0.00259457
  35        -0.00000000
  36        -0.00000000
  37         0.49089409
  38         0.00000000
  39         0.00000000
  40        -0.00857219
  41         0.00000000
  42         0.00000000
  43        -0.02284981
  44        -0.00000000
  45        -0.00000000
  46        -0.00000000
  47        -0.00000000
  48         0.00000000
  49        -0.00000000
  50        -0.00000000
  51        -0.00000000
  52         0.00000000
  53         0.00000000
  54         0.00000000
  55         0.00000000
  56         0.00000000
  57        -0.00000000
  58        -0.00000000
  59         0.00000000
  60         0.00000000
Sym=     7a  
Ene=    -0.4703
Spin= Alpha
Occup=    2.00000
   1         0.09672276
   2         0.30678127
   3         0.00284401
   4         0.00204510
   5         0.00000000
   6         0.00000000
   7        -0.78018622
   8        -0.00000000
   9        -0.00000000
  10         0.01362393
  11         0.00000000
  12        -0.00000000
  13         0.03631559
  14        -0.00000000
  15        -0.00000000
  16        -0.00000000
  17         0.00000000
  18         0.00000000
  19        -0.00000000
  20        -0.00000000
  21        -0.00000000
  22        -0.00000000
  23        -0.00000000
  24        -0.00000000
  25        -0.00000000
  26        -0.00000000
  27         0.00000000
  28        -0.00000000
  29         0.00000000
  30         0.00000000
  31         0.09672276
  32         0.30678127
  33         0.00284401
  34         0.00204510
  35         0.00000000
  36        -0.00000000
  37         0.78018622
  38         0.00000000
  39         0.00000000
  40        -0.01362393
  41        -0.00000000
  42         0.00000000
  43        -0.03631559
  44         0.00000000
  45        -0.00000000
  46        -0.00000000
  47         0.00000000
  48        -0.00000000
  49         0.00000000
  50        -0.00000000
  51        -0.00000000
  52        -0.00000000
  53         0.00000000
  54        -0.00000000
  55         0.00000000
  56         0.00000000
  57         0.00000000
  58        -0.00000000
  59         0.00000000
  60        -0.00000000
Sym=     8a  
Ene=    -0.2808
Spin= Alpha
Occup=    0.00000
   1         0.00000000
   2         0.00000000
   3        -0.00000000
   4         0.00000000
   5        -0.15975086
   6        -1.05003082
   7         0.00000000
   8         0.00278964
   9         0.01833607
  10         0.00000000
  11         0.00743598
  12         0.04887613
  13         0.00000000
  14         0.00000000
  15        -0.00000000
  16        -0.00000000
  17        -0.00000000
  18         0.00000000
  19         0.00000000
  20        -0.00000000
  21        -0.00000000
  22         0.00000000
  23        -0.00000000
  24         0.00000000
  25        -0.00000000
  26        -0.00000000
  27        -0.00000000
  28         0.00000000
  29         0.00000000
  30         0.00000000
  31        -0.00000000
  32        -0.00000000
  33         0.00000000
  34        -0.00000000
  35         0.15975086
  36         1.05003082
  37         0.00000000
  38        -0.00278964
  39        -0.01833607
  40         0.00000000
  41        -0.00743598
  42        -0.04887613
  43         0.00000000
  44        -0.00000000
  45        -0.00000000
  46        -0.00000000
  47         0.00000000
  48         0.00000000
  49        -0.00000000
  50        -0.00000000
  51        -0.00000000
  52        -0.00000000
  53        -0.00000000
  54         0.00000000
  55         0.00000000
  56         0.00000000
  57        -0.00000000
  58         0.00000000
  59         0.00000000
  60        -0.00000000
Sym=     9a  
Ene=    -0.2808
Spin= Alpha
Occup=    0.00000
   1        -0.00000000
   2        -0.00000000
   3         0.00000000
   4        -0.00000000
   5        -1.05003082
   6         0.15975086
   7         0.00000000
   8         0.01833607
   9        -0.00278964
  10        -0.00000000
  11         0.04887613
  12        -0.00743598
  13        -0.00000000
  14        -0.00000000
  15        -0.00000000
  16         0.00000000
  17         0.00000000
  18        -0.00000000
  19        -0.00000000
  20        -0.00000000
  21         0.00000000
  22         0.00000000
  23         0.00000000
  24        -0.00000000
  25        -0.00000000
  26         0.00000000
  27         0.00000000
  28        -0.00000000
  29         0.00000000
  30        -0.00000000
  31         0.00000000
  32         0.00000000
  33         0.00000000
  34         0.00000000
  35         1.05003082
  36        -0.15975086
  37        -0.00000000
  38        -0.01833607
  39         0.00278964
  40        -0.00000000
  41        -0.04887613
  42         0.00743598
  43        -0.00000000
  44        -0.00000000
  45        -0.00000000
  46         0.00000000
  47        -0.00000000
  48         0.00000000
  49         0.00000000
  50        -0.00000000
  51         0.00000000
  52        -0.00000000
  53        -0.00000000
  54         0.00000000
  55         0.00000000
  56        -0.00000000
  57         0.00000000
  58         0.00000000
  59        -0.00000000
  60        -0.00000000
Sym=    10a  
Ene=    -0.0373
Spin= Alpha
Occup=    0.00000
   1        -0.61830020
   2        -2.77310689
   3        -0.02631837
   4        -0.01779005
   5         0.00000000
   6        -0.00000000
   7        -1.79406930
   8        -0.00000000
   9         0.00000000
  10         0.03132877
  11        -0.00000000
  12         0.00000000
  13         0.08350914
  14         0.00000000
  15        -0.00000000
  16         0.00000000
  17        -0.00000000
  18         0.00000000
  19         0.00000000
  20        -0.00000000
  21         0.00000000
  22         0.00000000
  23         0.00000000
  24         0.00000000
  25        -0.00000000
  26         0.00000000
  27         0.00000000
  28         0.00000000
  29        -0.00000000
  30         0.00000000
  31         0.61830020
  32         2.77310689
  33         0.02631837
  34         0.01779005
  35        -0.00000000
  36         0.00000000
  37        -1.79406930
  38         0.00000000
  39        -0.00000000
  40         0.03132877
  41         0.00000000
  42        -0.00000000
  43         0.08350914
  44        -0.00000000
  45        -0.00000000
  46         0.00000000
  47        -0.00000000
  48         0.00000000
  49        -0.00000000
  50        -0.00000000
  51         0.00000000
  52         0.00000000
  53         0.00000000
  54         0.00000000
  55         0.00000000
  56        -0.00000000
  57         0.00000000
  58         0.00000000
  59        -0.00000000
  60         0.00000000
Sym=    11a  
Ene=     3.7793
Spin= Alpha
Occup=    0.00000
   1        -0.03828212
   2        -0.12359525
   3        -0.16144177
   4       -22.41514640
   5         0.00000000
   6        -0.00000000
   7         0.12919628
   8        -0.00000000
   9         0.00000000
  10        -0.60548451
  11         0.00000000
  12        -0.00000000
  13        -7.70959531
  14        -0.01063048
  15         0.00000000
  16        -0.00000000
  17        -0.00000000
  18        -0.00000000
  19        -0.63175708
  20         0.00000000
  21        -0.00000000
  22         0.00000000
  23        -0.00000000
  24        -0.04288131
  25         0.00000000
  26        -0.00000000
  27         0.00000000
  28        -0.00000000
  29         0.00000000
  30         0.00000000
  31         0.03828212
  32         0.12359525
  33         0.16144177
  34        22.41514640
  35        -0.00000000
  36        -0.00000000
  37         0.12919628
  38         0.00000000
  39         0.00000000
  40        -0.60548451
  41        -0.00000000
  42         0.00000000
  43        -7.70959531
  44         0.01063048
  45         0.00000000
  46        -0.00000000
  47         0.00000000
  48        -0.00000000
  49         0.63175708
  50         0.00000000
  51        -0.00000000
  52        -0.00000000
  53        -0.00000000
  54        -0.04288131
  55        -0.00000000
  56         0.00000000
  57         0.00000000
  58        -0.00000000
  59         0.00000000
  60        -0.00000000
Sym=    12a  
Ene=     3.8053
Spin= Alpha
Occup=    0.00000
   1         0.11594998
   2         0.42065378
   3         0.25750806
   4         0.05335989
   5         0.00000000
   6        -0.00000000
   7         0.09109383
   8        -0.00000000
   9        -0.00000000
  10         0.25821317
  11        -0.00000000
  12        -0.00000000
  13        -1.94269959
  14         0.01684070
  15        -0.00000000
  16        -0.00000000
  17        -0.00000000
  18        -0.00000000
  19        -0.56094944
  20        -0.00000000
  21        -0.00000000
  22         0.00000000
  23         0.00000000
  24        -0.07199807
  25        -0.00000000
  26        -0.00000000
  27         0.00000000
  28         0.00000000
  29        -0.00000000
  30         0.00000000
  31         0.11594998
  32         0.42065378
  33         0.25750806
  34         0.05335989
  35        -0.00000000
  36         0.00000000
  37        -0.09109383
  38         0.00000000
  39        -0.00000000
  40        -0.25821317
  41         0.00000000
  42         0.00000000
  43         1.94269959
  44         0.01684070
  45        -0.00000000
  46        -0.00000000
  47        -0.00000000
  48         0.00000000
  49        -0.56094944
  50        -0.00000000
  51        -0.00000000
  52         0.00000000
  53        -0.00000000
  54         0.07199807
  55         0.00000000
  56         0.00000000
  57        -0.00000000
  58         0.00000000
  59         0.00000000
  60        -0.00000000
Sym=    13a  
Ene=     3.8535
Spin= Alpha
Occup=    0.00000
   1        -0.00000000
   2        -0.00000000
   3        -0.00000000
   4         0.00000000
   5         0.00906968
   6         0.02059227
   7        -0.00000000
   8        -0.12061026
   9        -0.27383977
  10         0.00000000
  11        -1.03936526
  12        -2.35982865
  13         0.00000000
  14         0.00000000
  15        -0.00692018
  16        -0.01571194
  17         0.00000000
  18        -0.00000000
  19         0.00000000
  20        -0.37303143
  21        -0.84694986
  22        -0.00000000
  23         0.00000000
  24         0.00000000
  25        -0.04267619
  26        -0.09689423
  27        -0.00000000
  28         0.00000000
  29        -0.00000000
  30        -0.00000000
  31        -0.00000000
  32        -0.00000000
  33        -0.00000000
  34        -0.00000000
  35        -0.00906968
  36        -0.02059227
  37         0.00000000
  38         0.12061026
  39         0.27383977
  40         0.00000000
  41         1.03936526
  42         2.35982865
  43         0.00000000
  44        -0.00000000
  45        -0.00692018
  46        -0.01571194
  47        -0.00000000
  48        -0.00000000
  49         0.00000000
  50        -0.37303143
  51        -0.84694986
  52         0.00000000
  53         0.00000000
  54        -0.00000000
  55         0.04267619
  56         0.09689423
  57        -0.00000000
  58        -0.00000000
  59        -0.00000000
  60        -0.00000000
Sym=    14a  
Ene=     3.8535
Spin= Alpha
Occup=    0.00000
   1        -0.00000000
   2        -0.00000000
   3        -0.00000000
   4        -0.00000000
   5         0.02059227
   6        -0.00906968
   7        -0.00000000
   8        -0.27383977
   9         0.12061026
  10        -0.00000000
  11        -2.35982865
  12         1.03936526
  13        -0.00000000
  14        -0.00000000
  15        -0.01571194
  16         0.00692018
  17        -0.00000000
  18         0.00000000
  19         0.00000000
  20        -0.84694986
  21         0.37303143
  22         0.00000000
  23        -0.00000000
  24         0.00000000
  25        -0.09689423
  26         0.04267619
  27        -0.00000000
  28         0.00000000
  29        -0.00000000
  30        -0.00000000
  31        -0.00000000
  32        -0.00000000
  33        -0.00000000
  34         0.00000000
  35        -0.02059227
  36         0.00906968
  37         0.00000000
  38         0.27383977
  39        -0.12061026
  40        -0.00000000
  41         2.35982865
  42        -1.03936526
  43        -0.00000000
  44        -0.00000000
  45        -0.01571194
  46         0.00692018
  47         0.00000000
  48        -0.00000000
  49         0.00000000
  50        -0.84694986
  51         0.37303143
  52        -0.00000000
  53         0.00000000
  54        -0.00000000
  55         0.09689423
  56        -0.04267619
  57         0.00000000
  58        -0.00000000
  59        -0.00000000
  60        -0.00000000
Sym=    15a  
Ene=     4.0037
Spin= Alpha
Occup=    0.00000
   1         0.00000000
   2         0.00000000
   3         0.00000000
   4        -0.00000000
   5         0.03243519
   6         0.09315945
   7         0.00000000
   8        -0.24473501
   9        -0.70292106
  10         0.00000000
  11         0.23174958
  12         0.66562468
  13        -0.00000000
  14         0.00000000
  15         0.00017952
  16         0.00051562
  17        -0.00000000
  18         0.00000000
  19        -0.00000000
  20         0.00856579
  21         0.02460243
  22        -0.00000000
  23        -0.00000000
  24        -0.00000000
  25         0.01153413
  26         0.03312801
  27        -0.00000000
  28        -0.00000000
  29         0.00000000
  30         0.00000000
  31        -0.00000000
  32        -0.00000000
  33        -0.00000000
  34         0.00000000
  35         0.03243519
  36         0.09315945
  37         0.00000000
  38        -0.24473501
  39        -0.70292106
  40         0.00000000
  41         0.23174958
  42         0.66562468
  43        -0.00000000
  44        -0.00000000
  45        -0.00017952
  46        -0.00051562
  47         0.00000000
  48         0.00000000
  49         0.00000000
  50        -0.00856579
  51        -0.02460243
  52        -0.00000000
  53         0.00000000
  54         0.00000000
  55         0.01153413
  56         0.03312801
  57        -0.00000000
  58        -0.00000000
  59         0.00000000
  60         0.00000000
Sym=    16a  
Ene=     4.0037
Spin= Alpha
Occup=    0.00000
   1        -0.00000000
   2        -0.00000000
   3         0.00000000
   4         0.00000000
   5         0.09315945
   6        -0.03243519
   7        -0.00000000
   8        -0.70292106
   9         0.24473501
  10        -0.00000000
  11         0.66562468
  12        -0.23174958
  13         0.00000000
  14        -0.00000000
  15         0.00051562
  16        -0.00017952
  17        -0.00000000
  18        -0.00000000
  19         0.00000000
  20         0.02460243
  21        -0.00856579
  22         0.00000000
  23         0.00000000
  24         0.00000000
  25         0.03312801
  26        -0.01153413
  27         0.00000000
  28         0.00000000
  29         0.00000000
  30         0.00000000
  31         0.00000000
  32         0.00000000
  33        -0.00000000
  34        -0.00000000
  35         0.09315945
  36        -0.03243519
  37        -0.00000000
  38        -0.70292106
  39         0.24473501
  40        -0.00000000
  41         0.66562468
  42        -0.23174958
  43         0.00000000
  44         0.00000000
  45        -0.00051562
  46         0.00017952
  47        -0.00000000
  48        -0.00000000
  49        -0.00000000
  50        -0.02460243
  51         0.00856579
  52         0.00000000
  53        -0.00000000
  54         0.00000000
  55         0.03312801
  56        -0.01153413
  57        -0.00000000
  58         0.00000000
  59         0.00000000
  60        -0.00000000
Sym=    17a  
Ene=     4.3952
Spin= Alpha
Occup=    0.00000
   1        -0.01884491
   2        -0.03453665
   3        -0.44605598
   4       -16.74146323
   5        -0.00000000
   6         0.00000000
   7         0.04381524
   8         0.00000000
   9        -0.00000000
  10        -1.99465922
  11        -0.00000000
  12        -0.00000000
  13        -4.59655567
  14        -0.10307102
  15         0.00000000
  16        -0.00000000
  17        -0.00000000
  18         0.00000000
  19        -0.24478083
  20         0.00000000
  21        -0.00000000
  22         0.00000000
  23         0.00000000
  24        -0.03624742
  25         0.00000000
  26        -0.00000000
  27         0.00000000
  28         0.00000000
  29         0.00000000
  30         0.00000000
  31         0.01884491
  32         0.03453665
  33         0.44605598
  34        16.74146323
  35         0.00000000
  36         0.00000000
  37         0.04381524
  38        -0.00000000
  39        -0.00000000
  40        -1.99465922
  41         0.00000000
  42         0.00000000
  43        -4.59655567
  44         0.10307102
  45         0.00000000
  46        -0.00000000
  47         0.00000000
  48         0.00000000
  49         0.24478083
  50         0.00000000
  51        -0.00000000
  52        -0.00000000
  53        -0.00000000
  54        -0.03624742
  55        -0.00000000
  56         0.00000000
  57         0.00000000
  58         0.00000000
  59        -0.00000000
  60        -0.00000000
Sym=    18a  
Ene=     4.4285
Spin= Alpha
Occup=    0.00000
   1         0.61359360
   2         2.26181632
   3        -0.43067480
   4        -1.89102565
   5         0.00000000
   6         0.00000000
   7         0.07603112
   8         0.00000000
   9        -0.00000000
  10        -0.18976051
  11         0.00000000
  12        -0.00000000
  13        -0.43806024
  14        -0.03575100
  15         0.00000000
  16        -0.00000000
  17         0.00000000
  18         0.00000000
  19        -0.00414878
  20         0.00000000
  21        -0.00000000
  22         0.00000000
  23        -0.00000000
  24        -0.04837798
  25         0.00000000
  26        -0.00000000
  27         0.00000000
  28         0.00000000
  29         0.00000000
  30        -0.00000000
  31         0.61359360
  32         2.26181632
  33        -0.43067480
  34        -1.89102565
  35        -0.00000000
  36        -0.00000000
  37        -0.07603112
  38        -0.00000000
  39         0.00000000
  40         0.18976051
  41        -0.00000000
  42         0.00000000
  43         0.43806024
  44        -0.03575100
  45         0.00000000
  46        -0.00000000
  47         0.00000000
  48         0.00000000
  49        -0.00414878
  50         0.00000000
  51        -0.00000000
  52        -0.00000000
  53        -0.00000000
  54         0.04837798
  55        -0.00000000
  56         0.00000000
  57         0.00000000
  58        -0.00000000
  59        -0.00000000
  60        -0.00000000
Sym=    19a  
Ene=     4.4824
Spin= Alpha
Occup=    0.00000
   1         0.00000000
   2         0.00000000
   3        -0.00000000
   4        -0.00000000
   5         0.00000000
   6         0.00000000
   7         0.00000000
   8         0.00000000