   This run of MOLCAS is using the pymolcas driver

                             OPE
                             OPE          NMOL  CASOP  ENMOLC A   SO
                 OPE        NMOLC        AS  OP EN  MO LC     AS  OP
                OPENM       OL CA        SO  PE NM  OL CA     SOP EN
                OP EN      MO   LC       AS  OP ENMOL  CASO   PENMOL
                OP  EN     MO   LC       AS  OP EN     MO     LC ASO
               OP   E  NMOL  C  AS       OP  EN MO     LC     AS  OP
               OP  E   NMO   LC AS        OPEN  MO     LCASOP EN   M
               O  PEN   MO  LCA  SO
            OPE   NMO   L   CAS    OP
        OPENMOL  CASOP     ENMOL   CASOPE
     OPENMOLCA   SOPENMOLCASOPEN   MOLCASOPE
    OPENMOLCAS   OP           EN   MOL    CAS
    OPENMOLCAS       OP  ENM        O     LCA
    OPENMOLCAS    OPEN  MOLCASO     P  E  NMO
    OPENMOLCAS     OP               E  N  MOL
    OPENMOLCA   SO           PENM   O  L  CAS    OPEN    MO    LCAS
    OPENMOLCA   SOP           ENM   O  L  CAS   OP  EN  MOLC  AS   O
    OPENMOLCA   SOPE           NM      O  LCA   S      OP  EN MO
    OPENMOLC                AS         O  PEN   M      OL  CA  SOPE
    OPENMO        LCASOPE  NMOL        C  ASO   P      ENMOLC     AS
    OPE     NMO      LCA  SO     P     E   NM   OL  CA SO  PE N   MO
          OPENMOLCA            SOPE   NMO        LCAS  O    P  ENMO
     OPENMOLCASOPENMOLCASOPENMOLCASOPENMOLCA
        OPENMOLCASOPENMOLCASOPENMOLCASOPE
            OPENMOLCASOPENMOLCASOPENM
               OPENMOLCASOPENMOLCA        version: o822a959167d23c ?
                   OPENMOLCASO
                       OPE                tag:

 OpenMolcas is free software; you can redistribute it and/or modify it
 under the terms of the GNU Lesser General Public License version 2.1.
 OpenMolcas is distributed in the hope that it will be useful, but it
 is provided "as is" and without any express or implied warranties.
 For more details see the full text of the license in the file
 LICENSE or in <http://www.gnu.org/licenses/>.

                 Copyright (C) The OpenMolcas Authors
           For the author list and the recommended citation,
                   consult the file CONTRIBUTORS.md

           *************************************************
           * pymolcas version py2.28                       *
           *   build c4a6d18ded8cb6cad61d2372a9abd97c      *
           *   (after the EMIL interpreter by V. Veryazov) *
           *************************************************

configuration info
------------------
Host name: mgt (Linux)
C Compiler ID: GNU
C flags: -std=gnu99
Fortran Compiler ID: GNU
Fortran flags: -fno-aggressive-loop-optimizations -cpp -fdefault-integer-8 -fmax-stack-var-size=1048576
Definitions: _MOLCAS_;_I8_;_LINUX_
Parallel: OFF (GA=OFF)


   -------------------------------------------------------------------------------------------------------
  |
  |           Project: n2
  |    Submitted from: /public/home/xzzeng/work/HQC/N2/cc-pvtz/NO/PES/entropy/0.8/results/work_dir/n2/dmrg
  |      Scratch area: /public/home/xzzeng/work/HQC/N2/cc-pvtz/NO/PES/entropy/0.8/results/scratch
  |   Save outputs to: /public/home/xzzeng/work/HQC/N2/cc-pvtz/NO/PES/entropy/0.8/results/work_dir/n2/dmrg
  |            Molcas: /public/home/xzzeng/soft/OpenMolcas/build
  |
  | Scratch area is NOT empty
  |
  |    MOLCAS_DRIVER = /public/home/xzzeng/soft/OpenMolcas/build/pymolcas
  |    MOLCAS_NPROCS = 1
  |    MOLCAS_SOURCE = /public/home/xzzeng/soft/OpenMolcas
  | MOLCAS_STRUCTURE = 0
  |
   -------------------------------------------------------------------------------------------------------

++ ---------   Input file   ---------

&DMRGSCF
ActiveSpaceOptimizer = QCMaquis
DMRGSettings
  nsweeps = 5
  max_bond_dimension = 300
EndDMRGSettings
OOptimizationSettings
  SPIN    = 1
  NACTEL  = 10
  FILEORB = /public/home/xzzeng/work/HQC/N2/cc-pvtz/NO/PES/entropy/0.8/results/work_dir/n2/dmrg/n2.scf.h5_sel
  TYPEINDEX
  CIONLY
EndOOptimizationSettings

-- ----------------------------------

*** symbolic link created: INPORB -> n2.ScfOrb
--- Start Module: dmrgscf at Tue Apr  9 00:41:28 2024 ---

()()()()()()()()()()()()()()()()()()()()()()()()()()()()()()()()()()()()()()()()()()()()()()()()()()

                                              &DMRGSCF

                                   only a single process is used
                       available to each process: 12 GB of memory, 1 thread?
                                             pid: 59667
()()()()()()()()()()()()()()()()()()()()()()()()()()()()()()()()()()()()()()()()()()()()()()()()()()


      DMRGSCF: active space solver is set to qcmaquis
      -------                                --------


      Header of the ONEINT file:
      --------------------------
      
      Integrals generated by Gateway/Seward, Tue Apr  9 00:41:26 2024


      OrdInt status: non-squared


      Cartesian coordinates in Angstrom:
      -----------------------------------------------------
      No.  Label        X            Y            Z        
      -----------------------------------------------------
       1   N1         0.00000000   0.00000000   0.00000000
       2   N2         0.00000000   0.00000000   0.80000000
      -----------------------------------------------------
      Nuclear repulsion energy =   32.41210417

++    Wave function specifications:
      -----------------------------

      Number of closed shell electrons           4
      Number of electrons in active shells      10
      Max number of holes in RAS1 space          0
      Max nr of electrons in RAS3 space          0
      Number of inactive orbitals                2
      Number of active orbitals                  8
      Number of secondary orbitals              50
      Spin quantum number                      0.0
      State symmetry                             1
--

++    Orbital specifications:
      -----------------------

      Symmetry species                           1
                                                 a
      Frozen orbitals                            0
      Inactive orbitals                          2
      Active orbitals                            8
      RAS1 orbitals                              0
      RAS2 orbitals                              8
      RAS3 orbitals                              0
      Secondary orbitals                        50
      Deleted orbitals                           0
      Number of basis functions                 60
--

++    DMRG specifications:
      ----------------------------

      Number of renormalized states              300
      (Max) number of sweeps                     5
      Convergence threshold (sweep tolerance)    0.100E-07
      Jacobi-Davidson threshold                  0.100E-10
      SVD truncation threshold (initial)         1e-50
      SVD truncation threshold (final)           0.100E-10
      Number of root(s) required                 1
      Root chosen for geometry opt.              1
      DMRG root used                             1
         
--

++    Optimization specifications:
      ----------------------------

      RASSCF algorithm: LK Cholesky
      Maximum number of macro iterations       200
      Maximum number of SX iterations          100
      Threshold for RASSCF energy            1.000E-08
      Threshold for max MO rotation          1.000E-01
      Threshold for max BLB element          1.000E-04
      Level shift parameter                  5.000E-01
      Make Quasi-Newton update
--

      The MO-coefficients are taken from the file:
      /public/home/xzzeng/work/HQC/N2/cc-pvtz/NO/PES/entropy/0.8/results/work_dir/n2/dmrg/n2.scf.h5_sel                                                                                                                                                               

      Total molecular charge    0.00

      ************************************************************************************************************************
      *                                                                                                                      *
      *                                            Wave function control section                                             *
      *                                                                                                                      *
      ************************************************************************************************************************


                                         DMRGCI only, no orbital optimization will be done.
                                         --------------------------------------------------

                                             Please cite for the QCMaquis-Molcas driver:

                                    Freitag L.; Keller S.; Knecht S.; Lindh R.; Ma Y.; 
                                    Stein C. J. and Reiher M., in preparation. (2018).
                                    ---------------------------------------------------------------

                                             Please cite for the QCMaquis DMRG software:

                                    S. Keller, M. Dolfi, M. Troyer, M. Reiher,
                                    J. Chem. Phys. 143, 244118 (2015)
                                    ---------------------------------------------------------------



      DMRGCI energy              :    -108.5176764587
      Total time spent (hh:mm:ss):            0:00:02


      Natural orbitals and occupation numbers for root  1
      sym 1:   1.999976   1.993311   1.993311   1.994550   1.997807   0.009976   0.009976   0.001091

      ************************************************************************************************************************
      *                                                                                                                      *
      *                                                    Final results                                                     *
      *                                                                                                                      *
      ************************************************************************************************************************


++    Wave function specifications:
      -----------------------------

      Number of closed shell electrons           4
      Number of electrons in active shells      10
      Max number of holes in RAS1 space          0
      Max nr of electrons in RAS3 space          0
      Number of inactive orbitals                2
      Number of active orbitals                  8
      Number of secondary orbitals              50
      Spin quantum number                      0.0
      State symmetry                             1
--

++    Orbital specifications:
      -----------------------

      Symmetry species                           1
                                                 a
      Frozen orbitals                            0
      Inactive orbitals                          2
      Active orbitals                            8
      RAS1 orbitals                              0
      RAS2 orbitals                              8
      RAS3 orbitals                              0
      Secondary orbitals                        50
      Deleted orbitals                           0
      Number of basis functions                 60
--

++    DMRG specifications:
      ----------------------------

      Number of renormalized states              300
      (Max) number of sweeps                     5
      Convergence threshold (sweep tolerance)    0.100E-07
      Jacobi-Davidson threshold                  0.100E-10
      SVD truncation threshold (initial)         1e-50
      SVD truncation threshold (final)           0.100E-10
      Number of root(s) required                 1
      DMRG root used                             1
      highest root included in the DMRG          1
      Root passed to geometry opt.               1
--

++    Final optimization conditions:
      ------------------------------

      Average CI energy                            -108.51767646
--


      Final state energy(ies):
      ------------------------

::    RASSCF root number  1 Total energy:   -108.51767646

++    Molecular orbitals:
      -------------------

      Pseudonatural active orbitals and approximate occupation numbers




      Molecular orbitals for symmetry species 1: a  


      Orbital                 1         2         3         4         5         6         7         8         9        10
      Energy             0.0000    0.0000    0.0000    0.0000    0.0000    0.0000    0.0000    0.0000    0.0000    0.0000
      Occ. No.           0.0000    0.0000    0.0000    0.0000    0.0000    0.0000    0.0000    0.0000    0.0000    0.0000

     1 N1     1s         0.7042   -0.7070   -0.0713    0.0000   -0.0000    0.0005    0.0234   -0.0000   -0.0000   -0.0509
     2 N1     2s         0.0025   -0.0002    0.5976   -0.0000    0.0000   -0.5803    0.2343   -0.0000   -0.0000   -0.4470
     3 N1     *s         0.0029   -0.0042   -0.0088    0.0000   -0.0000    0.0109   -0.0108    0.0000    0.0000   -0.0436
     4 N1     *s        -0.0019   -0.0155   -0.1883   -0.0000    0.0000   -0.0754    0.2152   -0.0000   -0.0000  -14.3540
     5 N1     2px       -0.0000   -0.0000   -0.0000    0.6504   -0.2819   -0.0000    0.0000   -0.4268   -0.1760   -0.0000
     6 N1     *px        0.0000    0.0000   -0.0000   -0.0546    0.0237    0.0000    0.0000   -0.1420   -0.0586    0.0000
     7 N1     *px        0.0000    0.0000    0.0000   -0.1141    0.0495    0.0000    0.0000   -1.1438   -0.4717    0.0000
     8 N1     2py       -0.0000    0.0000   -0.0000    0.2819    0.6504    0.0000   -0.0000   -0.1760    0.4268    0.0000
     9 N1     *py       -0.0000   -0.0000   -0.0000   -0.0237   -0.0546   -0.0000   -0.0000   -0.0586    0.1420    0.0000
    10 N1     *py       -0.0000   -0.0000    0.0000   -0.0495   -0.1141   -0.0000   -0.0000   -0.4717    1.1438   -0.0000
    11 N1     2pz        0.0109   -0.0081    0.5314    0.0000   -0.0000    0.3825   -0.7723   -0.0000   -0.0000    0.1681
    12 N1     *pz       -0.0063    0.0026   -0.1297    0.0000   -0.0000   -0.0057    0.1222   -0.0000   -0.0000   -0.2446
    13 N1     *pz       -0.0041   -0.0019   -0.1802    0.0000   -0.0000   -0.0116    0.1354   -0.0000   -0.0000   -5.3753
    14 N1     *d2-       0.0000    0.0000   -0.0000   -0.0000    0.0000    0.0000   -0.0000    0.0000    0.0000   -0.0000
    15 N1     *d2-      -0.0000    0.0000   -0.0000   -0.0000   -0.0000    0.0000    0.0000    0.0000    0.0000    0.0000
    16 N1     *d1-      -0.0000    0.0000   -0.0000    0.0138    0.0319   -0.0000    0.0000    0.0050   -0.0122   -0.0000
    17 N1     *d1-      -0.0000   -0.0000   -0.0000    0.0132    0.0304   -0.0000    0.0000   -0.0595    0.1443   -0.0000
    18 N1     *d0        0.0020   -0.0016    0.0282    0.0000    0.0000    0.0041   -0.0227    0.0000    0.0000    0.0273
    19 N1     *d0       -0.0012   -0.0008    0.0093    0.0000   -0.0000    0.0079   -0.0009   -0.0000   -0.0000   -0.2137
    20 N1     *d1+       0.0000   -0.0000    0.0000    0.0319   -0.0138   -0.0000   -0.0000    0.0122    0.0050    0.0000
    21 N1     *d1+       0.0000   -0.0000   -0.0000    0.0304   -0.0132   -0.0000   -0.0000   -0.1443   -0.0595    0.0000
    22 N1     *d2+      -0.0000    0.0000    0.0000    0.0000    0.0000   -0.0000   -0.0000   -0.0000    0.0000   -0.0000
    23 N1     *d2+      -0.0000    0.0000    0.0000   -0.0000    0.0000   -0.0000    0.0000   -0.0000    0.0000    0.0000
    24 N1     *f3-      -0.0000   -0.0000   -0.0000   -0.0000   -0.0000    0.0000   -0.0000   -0.0000    0.0000    0.0000
    25 N1     *f2-      -0.0000    0.0000   -0.0000    0.0000    0.0000    0.0000    0.0000    0.0000    0.0000    0.0000
    26 N1     *f1-      -0.0000   -0.0000   -0.0000    0.0037    0.0086   -0.0000    0.0000   -0.0074    0.0180   -0.0000
    27 N1     *f0        0.0005   -0.0005    0.0064   -0.0000    0.0000    0.0002   -0.0038   -0.0000   -0.0000   -0.0113
    28 N1     *f1+       0.0000   -0.0000    0.0000    0.0086   -0.0037   -0.0000   -0.0000   -0.0180   -0.0074    0.0000
    29 N1     *f2+       0.0000    0.0000    0.0000    0.0000   -0.0000    0.0000   -0.0000   -0.0000    0.0000    0.0000
    30 N1     *f3+      -0.0000   -0.0000   -0.0000    0.0000   -0.0000   -0.0000    0.0000    0.0000    0.0000    0.0000
    31 N2     1s         0.7041    0.7072   -0.0713   -0.0000   -0.0000   -0.0005    0.0234   -0.0000   -0.0000    0.0508
    32 N2     2s         0.0029    0.0002    0.5977    0.0000   -0.0000    0.5803    0.2342   -0.0000   -0.0000    0.4468
    33 N2     *s         0.0029    0.0042   -0.0088   -0.0000    0.0000   -0.0109   -0.0108    0.0000    0.0000    0.0436
    34 N2     *s        -0.0018    0.0155   -0.1882    0.0000   -0.0000    0.0754    0.2152    0.0000    0.0000   14.3540
    35 N2     2px        0.0000    0.0000    0.0000    0.6504   -0.2819   -0.0000   -0.0000    0.4268    0.1760    0.0000
    36 N2     *px       -0.0000   -0.0000    0.0000   -0.0546    0.0237    0.0000    0.0000    0.1420    0.0586    0.0000
    37 N2     *px       -0.0000   -0.0000   -0.0000   -0.1141    0.0495    0.0000   -0.0000    1.1438    0.4717   -0.0000
    38 N2     2py       -0.0000   -0.0000   -0.0000    0.2819    0.6504    0.0000    0.0000    0.1760   -0.4268   -0.0000
    39 N2     *py        0.0000    0.0000    0.0000   -0.0237   -0.0546   -0.0000   -0.0000    0.0586   -0.1420   -0.0000
    40 N2     *py        0.0000    0.0000    0.0000   -0.0495   -0.1141   -0.0000   -0.0000    0.4717   -1.1438    0.0000
    41 N2     2pz       -0.0109   -0.0082   -0.5314    0.0000   -0.0000    0.3826    0.7723   -0.0000   -0.0000    0.1682
    42 N2     *pz        0.0061    0.0026    0.1297   -0.0000    0.0000   -0.0057   -0.1222   -0.0000   -0.0000   -0.2447
    43 N2     *pz        0.0041   -0.0019    0.1801   -0.0000    0.0000   -0.0116   -0.1354    0.0000   -0.0000   -5.3758
    44 N2     *d2-      -0.0000    0.0000    0.0000   -0.0000    0.0000    0.0000   -0.0000   -0.0000   -0.0000   -0.0000
    45 N2     *d2-       0.0000    0.0000    0.0000   -0.0000    0.0000    0.0000    0.0000   -0.0000   -0.0000    0.0000
    46 N2     *d1-      -0.0000    0.0000    0.0000   -0.0138   -0.0319   -0.0000   -0.0000    0.0050   -0.0122   -0.0000
    47 N2     *d1-      -0.0000   -0.0000    0.0000   -0.0132   -0.0304    0.0000    0.0000   -0.0595    0.1443   -0.0000
    48 N2     *d0        0.0020    0.0016    0.0282   -0.0000    0.0000   -0.0041   -0.0227   -0.0000   -0.0000   -0.0273
    49 N2     *d0       -0.0012    0.0008    0.0093   -0.0000    0.0000   -0.0079   -0.0009   -0.0000   -0.0000    0.2138
    50 N2     *d1+       0.0000   -0.0000   -0.0000   -0.0319    0.0138    0.0000    0.0000    0.0122    0.0050   -0.0000
    51 N2     *d1+       0.0000    0.0000   -0.0000   -0.0304    0.0132    0.0000    0.0000   -0.1443   -0.0595    0.0000
    52 N2     *d2+      -0.0000    0.0000    0.0000    0.0000    0.0000   -0.0000   -0.0000    0.0000   -0.0000    0.0000
    53 N2     *d2+      -0.0000   -0.0000   -0.0000    0.0000    0.0000   -0.0000   -0.0000    0.0000   -0.0000   -0.0000
    54 N2     *f3-       0.0000    0.0000    0.0000    0.0000    0.0000    0.0000   -0.0000    0.0000   -0.0000    0.0000
    55 N2     *f2-      -0.0000   -0.0000   -0.0000    0.0000   -0.0000   -0.0000    0.0000    0.0000    0.0000   -0.0000
    56 N2     *f1-       0.0000    0.0000    0.0000    0.0037    0.0086   -0.0000   -0.0000    0.0074   -0.0180    0.0000
    57 N2     *f0       -0.0005   -0.0005   -0.0064    0.0000   -0.0000    0.0002    0.0038   -0.0000    0.0000   -0.0113
    58 N2     *f1+      -0.0000   -0.0000   -0.0000    0.0086   -0.0037   -0.0000    0.0000    0.0180    0.0074   -0.0000
    59 N2     *f2+       0.0000    0.0000    0.0000   -0.0000   -0.0000    0.0000    0.0000   -0.0000    0.0000    0.0000
    60 N2     *f3+      -0.0000   -0.0000    0.0000   -0.0000    0.0000   -0.0000    0.0000   -0.0000   -0.0000   -0.0000


      Orbital                11        12        13        14        15        16        17        18        19        20
      Energy             0.0000    0.0000    0.0000    0.0000    0.0000    0.0000    0.0000    0.0000    0.0000    0.0000
      Occ. No.           0.0000    0.0000    0.0000    0.0000    0.0000    0.0000    0.0000    0.0000    0.0000    0.0000

     1 N1     1s        -0.0000    0.0000    0.0908    0.3300    0.0000    0.0000   -0.0776   -0.0000    0.0000    0.0000
     2 N1     2s        -0.0000    0.0000    0.2966    1.5775    0.0000   -0.0000    0.0132   -0.0000    0.0000    0.0000
     3 N1     *s        -0.0000    0.0000    0.1549   -0.0770   -0.0000    0.0000   -0.1740   -0.0000    0.0000    0.0000
     4 N1     *s        -0.0000    0.0000    0.1093   -1.4917   -0.0000    0.0000  -20.1858   -0.0000    0.0000    0.0000
     5 N1     2px       -0.3282    0.0971   -0.0000   -0.0000    0.6778   -0.0110   -0.0000    0.0000    0.0000   -0.0027
     6 N1     *px       -0.2470    0.0731    0.0000   -0.0000   -0.3476    0.0057    0.0000   -0.0000    0.0000   -0.0229
     7 N1     *px        0.7612   -0.2252    0.0000    0.0000   -2.1952    0.0358    0.0000    0.0000   -0.0000    0.0097
     8 N1     2py       -0.0971   -0.3282    0.0000    0.0000    0.0110    0.6778    0.0000    0.0000   -0.0000    0.0551
     9 N1     *py       -0.0731   -0.2470    0.0000    0.0000   -0.0057   -0.3476   -0.0000    0.0000    0.0000    0.4772
    10 N1     *py        0.2252    0.7612   -0.0000   -0.0000   -0.0358   -2.1952   -0.0000   -0.0000   -0.0000   -0.2008
    11 N1     2pz        0.0000   -0.0000    0.4057   -0.1642    0.0000   -0.0000   -0.2794   -0.0000    0.0000   -0.0000
    12 N1     *pz       -0.0000    0.0000   -0.0415   -0.1649   -0.0000    0.0000   -1.4824   -0.0000    0.0000    0.0000
    13 N1     *pz       -0.0000    0.0000   -1.7867   -0.1041   -0.0000    0.0000   -5.8267   -0.0000    0.0000    0.0000
    14 N1     *d2-       0.0000   -0.0000   -0.0000    0.0000   -0.0000    0.0000    0.0000    0.0004    0.0000    0.0000
    15 N1     *d2-      -0.0000    0.0000    0.0000   -0.0000   -0.0000   -0.0000   -0.0000    0.5612    0.0000   -0.0000
    16 N1     *d1-      -0.0077   -0.0261   -0.0000    0.0000   -0.0006   -0.0352   -0.0000   -0.0000   -0.0000    0.0135
    17 N1     *d1-      -0.0072   -0.0243   -0.0000    0.0000   -0.0124   -0.7617   -0.0000   -0.0000    0.0000   -0.8260
    18 N1     *d0       -0.0000    0.0000    0.0304   -0.0012   -0.0000    0.0000   -0.0552   -0.0000    0.0000   -0.0000
    19 N1     *d0       -0.0000   -0.0000   -0.2985    0.0828   -0.0000    0.0000   -0.2944   -0.0000    0.0000   -0.0000
    20 N1     *d1+      -0.0261    0.0077    0.0000   -0.0000   -0.0352    0.0006    0.0000    0.0000   -0.0000   -0.0007
    21 N1     *d1+      -0.0243    0.0072    0.0000    0.0000   -0.7617    0.0124    0.0000   -0.0000   -0.0000    0.0397
    22 N1     *d2+      -0.0000   -0.0000   -0.0000    0.0000    0.0000    0.0000   -0.0000   -0.0000    0.0004    0.0000
    23 N1     *d2+       0.0000    0.0000   -0.0000    0.0000   -0.0000    0.0000    0.0000   -0.0000    0.5612   -0.0000
    24 N1     *f3-       0.0000    0.0000    0.0000    0.0000   -0.0000   -0.0000    0.0000    0.0000   -0.0000    0.0000
    25 N1     *f2-       0.0000   -0.0000   -0.0000   -0.0000    0.0000   -0.0000    0.0000    0.0009    0.0000   -0.0000
    26 N1     *f1-       0.0022    0.0075   -0.0000   -0.0000   -0.0015   -0.0920   -0.0000   -0.0000   -0.0000   -0.0324
    27 N1     *f0        0.0000   -0.0000   -0.0438   -0.0160   -0.0000    0.0000   -0.0326   -0.0000    0.0000   -0.0000
    28 N1     *f1+       0.0075   -0.0022    0.0000    0.0000   -0.0920    0.0015    0.0000    0.0000   -0.0000    0.0016
    29 N1     *f2+      -0.0000   -0.0000   -0.0000    0.0000   -0.0000   -0.0000    0.0000   -0.0000    0.0009   -0.0000
    30 N1     *f3+      -0.0000    0.0000    0.0000    0.0000    0.0000   -0.0000    0.0000    0.0000    0.0000    0.0000
    31 N2     1s        -0.0000    0.0000    0.0907    0.3298    0.0000   -0.0000    0.0776    0.0000   -0.0000    0.0000
    32 N2     2s        -0.0000    0.0000    0.2965    1.5769    0.0000   -0.0000   -0.0132    0.0000   -0.0000    0.0000
    33 N2     *s         0.0000   -0.0000    0.1549   -0.0770    0.0000   -0.0000    0.1741    0.0000   -0.0000    0.0000
    34 N2     *s         0.0000   -0.0000    0.1114   -1.4916    0.0000   -0.0000   20.1858    0.0000   -0.0000   -0.0000
    35 N2     2px       -0.3282    0.0971   -0.0000    0.0000   -0.6778    0.0110    0.0000    0.0000   -0.0000   -0.0027
    36 N2     *px       -0.2470    0.0731   -0.0000   -0.0000    0.3476   -0.0057   -0.0000   -0.0000    0.0000   -0.0229
    37 N2     *px        0.7611   -0.2252   -0.0000    0.0000    2.1952   -0.0358   -0.0000   -0.0000    0.0000    0.0097
    38 N2     2py       -0.0971   -0.3282    0.0000    0.0000   -0.0110   -0.6778   -0.0000   -0.0000   -0.0000    0.0551
    39 N2     *py       -0.0731   -0.2470    0.0000    0.0000    0.0057    0.3476    0.0000    0.0000    0.0000    0.4770
    40 N2     *py        0.2252    0.7611    0.0000   -0.0000    0.0358    2.1952    0.0000    0.0000    0.0000   -0.2009
    41 N2     2pz        0.0000   -0.0000   -0.4057    0.1642   -0.0000    0.0000   -0.2794   -0.0000    0.0000    0.0000
    42 N2     *pz       -0.0000    0.0000    0.0416    0.1651   -0.0000    0.0000   -1.4824   -0.0000    0.0000   -0.0000
    43 N2     *pz       -0.0000    0.0000    1.7858    0.1042   -0.0000    0.0000   -5.8266   -0.0000    0.0000    0.0000
    44 N2     *d2-       0.0000   -0.0000    0.0000   -0.0000    0.0000   -0.0000    0.0000    0.0004    0.0000   -0.0000
    45 N2     *d2-      -0.0000    0.0000   -0.0000    0.0000    0.0000   -0.0000   -0.0000    0.5612    0.0000    0.0000
    46 N2     *d1-       0.0077    0.0261    0.0000   -0.0000   -0.0006   -0.0352    0.0000   -0.0000    0.0000   -0.0135
    47 N2     *d1-       0.0072    0.0243   -0.0000   -0.0000   -0.0124   -0.7617   -0.0000   -0.0000   -0.0000    0.8261
    48 N2     *d0        0.0000   -0.0000    0.0304   -0.0013    0.0000   -0.0000    0.0552    0.0000   -0.0000   -0.0000
    49 N2     *d0        0.0000   -0.0000   -0.2985    0.0828    0.0000   -0.0000    0.2943    0.0000   -0.0000   -0.0000
    50 N2     *d1+       0.0261   -0.0077   -0.0000    0.0000   -0.0352    0.0006   -0.0000   -0.0000   -0.0000    0.0007
    51 N2     *d1+       0.0243   -0.0072    0.0000    0.0000   -0.7617    0.0124    0.0000    0.0000   -0.0000   -0.0397
    52 N2     *d2+      -0.0000   -0.0000    0.0000   -0.0000   -0.0000   -0.0000    0.0000   -0.0000    0.0004    0.0000
    53 N2     *d2+       0.0000    0.0000    0.0000   -0.0000   -0.0000   -0.0000   -0.0000   -0.0000    0.5613    0.0000
    54 N2     *f3-       0.0000    0.0000    0.0000   -0.0000    0.0000    0.0000   -0.0000    0.0000   -0.0000    0.0000
    55 N2     *f2-      -0.0000    0.0000   -0.0000   -0.0000    0.0000   -0.0000   -0.0000   -0.0009   -0.0000    0.0000
    56 N2     *f1-       0.0022    0.0075    0.0000   -0.0000    0.0015    0.0920    0.0000   -0.0000   -0.0000   -0.0325
    57 N2     *f0       -0.0000    0.0000    0.0438    0.0160    0.0000    0.0000   -0.0326   -0.0000    0.0000    0.0000
    58 N2     *f1+       0.0075   -0.0022   -0.0000    0.0000    0.0920   -0.0015   -0.0000    0.0000   -0.0000    0.0016
    59 N2     *f2+       0.0000    0.0000   -0.0000    0.0000   -0.0000   -0.0000    0.0000    0.0000   -0.0009    0.0000
    60 N2     *f3+      -0.0000    0.0000    0.0000   -0.0000   -0.0000    0.0000    0.0000    0.0000    0.0000    0.0000


      Orbital                21        22        23        24        25        26        27        28        29        30
      Energy             0.0000    0.0000    0.0000    0.0000    0.0000    0.0000    0.0000    0.0000    0.0000    0.0000
      Occ. No.           0.0000    0.0000    0.0000    0.0000    0.0000    0.0000    0.0000    0.0000    0.0000    0.0000

     1 N1     1s        -0.0000   -0.0890    0.0000   -0.0000    0.5919   -0.0000   -0.0000   -0.0000    0.0000   -0.0666
     2 N1     2s        -0.0000    0.0623   -0.0000    0.0000    2.0647   -0.0000   -0.0000   -0.0000    0.0000   -0.4840
     3 N1     *s        -0.0000   -0.1638   -0.0000   -0.0000    0.5945   -0.0000   -0.0000    0.0000   -0.0000    0.0943
     4 N1     *s        -0.0000  -12.2794    0.0000   -0.0000   -1.5539   -0.0000   -0.0000   -0.0000    0.0000   -1.1270
     5 N1     2px        0.0551   -0.0000   -0.0000    0.0000   -0.0000    0.0002   -0.5895   -0.4145   -1.9797   -0.0000
     6 N1     *px        0.4772    0.0000    0.0000   -0.0000   -0.0000    0.0011   -2.9022    0.3865    1.8459    0.0000
     7 N1     *px       -0.2008    0.0000   -0.0000    0.0000   -0.0000    0.0005   -1.4365    0.0679    0.3241    0.0000
     8 N1     2py        0.0027    0.0000    0.0000    0.0000    0.0000    0.5895    0.0002   -1.9797    0.4145    0.0000
     9 N1     *py        0.0229   -0.0000   -0.0000   -0.0000    0.0000    2.9022    0.0011    1.8459   -0.3865   -0.0000
    10 N1     *py       -0.0097   -0.0000    0.0000    0.0000    0.0000    1.4365    0.0005    0.3241   -0.0679   -0.0000
    11 N1     2pz        0.0000    0.2627   -0.0000    0.0000   -0.3308    0.0000    0.0000   -0.0000    0.0000   -1.8041
    12 N1     *pz       -0.0000   -0.4258    0.0000   -0.0000   -0.1755   -0.0000   -0.0000   -0.0000    0.0000    1.4168
    13 N1     *pz       -0.0000   -4.0496    0.0000   -0.0000   -1.5637   -0.0000   -0.0000   -0.0000    0.0000   -0.0290
    14 N1     *d2-      -0.0000   -0.0000    0.0209    0.0000   -0.0000    0.0000    0.0000   -0.0000    0.0000   -0.0000
    15 N1     *d2-       0.0000   -0.0000   -1.1700   -0.0000    0.0000    0.0000    0.0000    0.0000    0.0000   -0.0000
    16 N1     *d1-       0.0007   -0.0000   -0.0000   -0.0000    0.0000    0.1174    0.0000   -0.1130    0.0237    0.0000
    17 N1     *d1-      -0.0397   -0.0000    0.0000    0.0000    0.0000    2.8788    0.0011    0.0342   -0.0072   -0.0000
    18 N1     *d0        0.0000   -0.0124   -0.0000   -0.0000   -0.0547    0.0000    0.0000    0.0000   -0.0000    0.4457
    19 N1     *d0       -0.0000   -0.9900    0.0000   -0.0000   -1.6551   -0.0000   -0.0000   -0.0000    0.0000   -0.4515
    20 N1     *d1+       0.0135    0.0000    0.0000   -0.0000   -0.0000    0.0000   -0.1174   -0.0237   -0.1130   -0.0000
    21 N1     *d1+      -0.8260    0.0000   -0.0000    0.0000   -0.0000    0.0011   -2.8788    0.0072    0.0342    0.0000
    22 N1     *d2+       0.0000   -0.0000   -0.0000    0.0209   -0.0000    0.0000   -0.0000   -0.0000   -0.0000   -0.0000
    23 N1     *d2+      -0.0000    0.0000    0.0000   -1.1700   -0.0000    0.0000   -0.0000   -0.0000    0.0000    0.0000
    24 N1     *f3-       0.0000    0.0000   -0.0000    0.0000   -0.0000    0.0000    0.0000   -0.0000    0.0000   -0.0000
    25 N1     *f2-       0.0000   -0.0000   -0.0755   -0.0000   -0.0000    0.0000    0.0000    0.0000    0.0000   -0.0000
    26 N1     *f1-      -0.0016   -0.0000    0.0000    0.0000    0.0000    0.2878    0.0001   -0.1792    0.0375   -0.0000
    27 N1     *f0        0.0000   -0.0270   -0.0000   -0.0000   -0.1928    0.0000    0.0000    0.0000   -0.0000    0.0981
    28 N1     *f1+      -0.0324    0.0000   -0.0000    0.0000   -0.0000    0.0001   -0.2878   -0.0375   -0.1792    0.0000
    29 N1     *f2+      -0.0000    0.0000    0.0000   -0.0755   -0.0000    0.0000   -0.0000   -0.0000    0.0000    0.0000
    30 N1     *f3+      -0.0000    0.0000   -0.0000   -0.0000    0.0000   -0.0000    0.0000    0.0000    0.0000    0.0000
    31 N2     1s        -0.0000    0.0888   -0.0000    0.0000    0.5915    0.0000   -0.0000   -0.0000    0.0000    0.0666
    32 N2     2s        -0.0000   -0.0631    0.0000   -0.0000    2.0637    0.0000   -0.0000   -0.0000   -0.0000    0.4840
    33 N2     *s        -0.0000    0.1636   -0.0000    0.0000    0.5946    0.0000   -0.0000    0.0000   -0.0000   -0.0944
    34 N2     *s         0.0000   12.2799   -0.0000    0.0000   -1.5499    0.0000    0.0000    0.0000   -0.0000    1.1271
    35 N2     2px        0.0551    0.0000    0.0000   -0.0000    0.0000   -0.0002    0.5894   -0.4145   -1.9799   -0.0000
    36 N2     *px        0.4770   -0.0000   -0.0000   -0.0000    0.0000   -0.0011    2.9022    0.3865    1.8463   -0.0000
    37 N2     *px       -0.2009   -0.0000   -0.0000    0.0000    0.0000   -0.0005    1.4365    0.0679    0.3242   -0.0000
    38 N2     2py        0.0027   -0.0000   -0.0000   -0.0000    0.0000   -0.5894   -0.0002   -1.9799    0.4145    0.0000
    39 N2     *py        0.0229    0.0000   -0.0000    0.0000   -0.0000   -2.9022   -0.0011    1.8463   -0.3865    0.0000
    40 N2     *py       -0.0097    0.0000    0.0000    0.0000   -0.0000   -1.4365   -0.0005    0.3242   -0.0679    0.0000
    41 N2     2pz       -0.0000    0.2626   -0.0000    0.0000    0.3309    0.0000    0.0000   -0.0000    0.0000   -1.8039
    42 N2     *pz       -0.0000   -0.4258    0.0000   -0.0000    0.1757   -0.0000   -0.0000    0.0000    0.0000    1.4165
    43 N2     *pz       -0.0000   -4.0500    0.0000   -0.0000    1.5625   -0.0000   -0.0000    0.0000    0.0000   -0.0291
    44 N2     *d2-      -0.0000    0.0000   -0.0209   -0.0000    0.0000   -0.0000   -0.0000   -0.0000    0.0000   -0.0000
    45 N2     *d2-      -0.0000    0.0000    1.1700    0.0000   -0.0000   -0.0000   -0.0000   -0.0000    0.0000    0.0000
    46 N2     *d1-      -0.0007   -0.0000   -0.0000   -0.0000   -0.0000    0.1174    0.0000    0.1130   -0.0237    0.0000
    47 N2     *d1-       0.0397   -0.0000   -0.0000   -0.0000    0.0000    2.8787    0.0011   -0.0344    0.0072   -0.0000
    48 N2     *d0        0.0000    0.0124    0.0000    0.0000   -0.0547   -0.0000    0.0000   -0.0000    0.0000   -0.4457
    49 N2     *d0        0.0000    0.9905   -0.0000    0.0000   -1.6549    0.0000    0.0000   -0.0000   -0.0000    0.4517
    50 N2     *d1+      -0.0135    0.0000    0.0000   -0.0000    0.0000    0.0000   -0.1174    0.0237    0.1130   -0.0000
    51 N2     *d1+       0.8261    0.0000    0.0000   -0.0000   -0.0000    0.0011   -2.8787   -0.0072   -0.0344    0.0000
    52 N2     *d2+      -0.0000    0.0000    0.0000   -0.0209   -0.0000   -0.0000    0.0000   -0.0000   -0.0000    0.0000
    53 N2     *d2+       0.0000   -0.0000   -0.0000    1.1700    0.0000   -0.0000    0.0000   -0.0000   -0.0000   -0.0000
    54 N2     *f3-       0.0000   -0.0000    0.0000   -0.0000   -0.0000   -0.0000   -0.0000   -0.0000    0.0000    0.0000
    55 N2     *f2-      -0.0000   -0.0000   -0.0755   -0.0000   -0.0000    0.0000    0.0000    0.0000   -0.0000    0.0000
    56 N2     *f1-      -0.0016    0.0000    0.0000   -0.0000    0.0000   -0.2878   -0.0001   -0.1792    0.0375    0.0000
    57 N2     *f0       -0.0000   -0.0270    0.0000   -0.0000    0.1928    0.0000   -0.0000   -0.0000   -0.0000    0.0981
    58 N2     *f1+      -0.0325   -0.0000    0.0000    0.0000    0.0000   -0.0001    0.2878   -0.0375   -0.1792   -0.0000
    59 N2     *f2+       0.0000    0.0000    0.0000   -0.0755   -0.0000    0.0000   -0.0000    0.0000    0.0000    0.0000
    60 N2     *f3+      -0.0000   -0.0000    0.0000    0.0000    0.0000    0.0000   -0.0000    0.0000    0.0000   -0.0000


      Orbital                31        32        33        34        35        36        37        38        39        40
      Energy             0.0000    0.0000    0.0000    0.0000    0.0000    0.0000    0.0000    0.0000    0.0000    0.0000
      Occ. No.           0.0000    0.0000    0.0000    0.0000    0.0000    0.0000    0.0000    0.0000    0.0000    0.0000

     1 N1     1s         0.2384    0.0000   -0.0000    0.0000   -0.0000   -0.6039    0.0000    0.0000    0.0000   -0.0000
     2 N1     2s         1.1158    0.0000   -0.0000   -0.0000   -0.0000   -3.3611    0.0000    0.0000    0.0000   -0.0000
     3 N1     *s         0.6109    0.0000   -0.0000   -0.0000   -0.0000   -1.3283    0.0000    0.0000   -0.0000    0.0000
     4 N1     *s        -0.9270    0.0000   -0.0000   -0.0000   -0.0000  -12.8861    0.0000    0.0000   -0.0000    0.0000
     5 N1     2px        0.0000    0.0087   -2.5074    0.0000    0.0000    0.0000   -0.0000   -0.0000    0.0531    0.7698
     6 N1     *px       -0.0000   -0.0173    5.0010   -0.0000   -0.0001   -0.0000   -0.0000    0.0000   -0.0502   -0.7285
     7 N1     *px       -0.0000   -0.0036    1.0350   -0.0000   -0.0000   -0.0000    0.0000    0.0000   -0.0119   -0.1721
     8 N1     2py       -0.0000   -2.5074   -0.0087   -0.0000    0.0000   -0.0000   -0.0000    0.0000    0.7698   -0.0531
     9 N1     *py        0.0000    5.0010    0.0173    0.0001   -0.0000    0.0000    0.0000    0.0000   -0.7285    0.0502
    10 N1     *py        0.0000    1.0350    0.0036    0.0000   -0.0000    0.0000    0.0000   -0.0000   -0.1721    0.0119
    11 N1     2pz        1.5675   -0.0000    0.0000    0.0000    0.0000    0.8054    0.0000   -0.0000    0.0000   -0.0000
    12 N1     *pz       -2.0035    0.0000   -0.0000   -0.0000   -0.0000   -3.8504   -0.0000    0.0000   -0.0000    0.0000
    13 N1     *pz       -0.9980    0.0000   -0.0000   -0.0000   -0.0000   -4.3204   -0.0000    0.0000   -0.0000    0.0000
    14 N1     *d2-       0.0000    0.0000    0.0000   -0.0000   -0.0000   -0.0000   -0.4003   -0.0000    0.0000   -0.0000
    15 N1     *d2-      -0.0000   -0.0000    0.0000    0.0000    0.0000   -0.0000    0.2848    0.0000    0.0000    0.0000
    16 N1     *d1-       0.0000    0.2251    0.0008    0.0000    0.0000    0.0000   -0.0000   -0.0000   -0.7269    0.0501
    17 N1     *d1-      -0.0000    1.8919    0.0065    0.0000   -0.0000    0.0000    0.0000    0.0000    0.5445   -0.0376
    18 N1     *d0        0.1728   -0.0000    0.0000   -0.0000   -0.0000    0.0256   -0.0000   -0.0000    0.0000   -0.0000
    19 N1     *d0       -1.1830    0.0000   -0.0000   -0.0000   -0.0000   -1.1682   -0.0000    0.0000   -0.0000    0.0000
    20 N1     *d1+      -0.0000   -0.0008    0.2251    0.0000   -0.0000   -0.0000    0.0000   -0.0000   -0.0501   -0.7269
    21 N1     *d1+      -0.0000   -0.0065    1.8919   -0.0000   -0.0000   -0.0000   -0.0000    0.0000    0.0376    0.5445
    22 N1     *d2+      -0.0000   -0.0000    0.0000    0.0000   -0.0000   -0.0000    0.0000   -0.4002    0.0000    0.0000
    23 N1     *d2+       0.0000   -0.0000   -0.0000   -0.0000    0.0000    0.0000   -0.0000    0.2848   -0.0000    0.0000
    24 N1     *f3-      -0.0000    0.0000    0.0000   -0.6234    0.0000    0.0000    0.0000   -0.0000    0.0000   -0.0000
    25 N1     *f2-      -0.0000    0.0000   -0.0000   -0.0000   -0.0000   -0.0000   -0.4577   -0.0000    0.0000   -0.0000
    26 N1     *f1-       0.0000    0.2799    0.0010    0.0000   -0.0000    0.0000   -0.0000   -0.0000    0.0930   -0.0064
    27 N1     *f0        0.2018    0.0000   -0.0000   -0.0000    0.0000   -0.0291    0.0000   -0.0000   -0.0000    0.0000
    28 N1     *f1+      -0.0000   -0.0010    0.2799   -0.0000   -0.0000   -0.0000    0.0000   -0.0000    0.0064    0.0930
    29 N1     *f2+      -0.0000    0.0000    0.0000    0.0000   -0.0000    0.0000    0.0000   -0.4577    0.0000    0.0000
    30 N1     *f3+       0.0000    0.0000   -0.0000   -0.0000   -0.6234    0.0000    0.0000    0.0000   -0.0000   -0.0000
    31 N2     1s         0.2382   -0.0000    0.0000    0.0000    0.0000    0.6038   -0.0000   -0.0000    0.0000   -0.0000
    32 N2     2s         1.1152   -0.0000    0.0000    0.0000    0.0000    3.3608   -0.0000   -0.0000    0.0000   -0.0000
    33 N2     *s         0.6108   -0.0000    0.0000    0.0000    0.0000    1.3286   -0.0000   -0.0000   -0.0000    0.0000
    34 N2     *s        -0.9282   -0.0000    0.0000    0.0000    0.0000   12.8863   -0.0000   -0.0000   -0.0000    0.0000
    35 N2     2px       -0.0000   -0.0087    2.5073   -0.0000   -0.0000   -0.0000   -0.0000    0.0000    0.0531    0.7697
    36 N2     *px        0.0000    0.0173   -5.0009    0.0000    0.0001    0.0000    0.0000   -0.0000   -0.0502   -0.7280
    37 N2     *px        0.0000    0.0036   -1.0350    0.0000    0.0000    0.0000    0.0000   -0.0000   -0.0119   -0.1720
    38 N2     2py        0.0000    2.5073    0.0087    0.0000   -0.0000    0.0000    0.0000    0.0000    0.7697   -0.0531
    39 N2     *py       -0.0000   -5.0009   -0.0173   -0.0001    0.0000   -0.0000   -0.0000   -0.0000   -0.7280    0.0502
    40 N2     *py       -0.0000   -1.0350   -0.0036   -0.0000    0.0000   -0.0000   -0.0000   -0.0000   -0.1720    0.0119
    41 N2     2pz       -1.5679   -0.0000    0.0000   -0.0000    0.0000    0.8053   -0.0000   -0.0000   -0.0000    0.0000
    42 N2     *pz        2.0042    0.0000   -0.0000   -0.0000   -0.0000   -3.8503    0.0000    0.0000    0.0000   -0.0000
    43 N2     *pz        0.9984    0.0000   -0.0000   -0.0000   -0.0000   -4.3203    0.0000    0.0000    0.0000   -0.0000
    44 N2     *d2-       0.0000    0.0000   -0.0000   -0.0000   -0.0000   -0.0000   -0.4003   -0.0000    0.0000   -0.0000
    45 N2     *d2-       0.0000   -0.0000   -0.0000    0.0000    0.0000    0.0000    0.2848    0.0000   -0.0000    0.0000
    46 N2     *d1-      -0.0000    0.2251    0.0008    0.0000   -0.0000    0.0000    0.0000    0.0000    0.7270   -0.0501
    47 N2     *d1-       0.0000    1.8919    0.0065    0.0000   -0.0000    0.0000    0.0000   -0.0000   -0.5448    0.0376
    48 N2     *d0        0.1727    0.0000   -0.0000   -0.0000   -0.0000   -0.0256    0.0000   -0.0000    0.0000   -0.0000
    49 N2     *d0       -1.1832   -0.0000    0.0000    0.0000    0.0000    1.1680   -0.0000   -0.0000   -0.0000    0.0000
    50 N2     *d1+       0.0000   -0.0008    0.2251   -0.0000   -0.0000   -0.0000   -0.0000    0.0000    0.0501    0.7270
    51 N2     *d1+      -0.0000   -0.0065    1.8919   -0.0000   -0.0000   -0.0000    0.0000    0.0000   -0.0376   -0.5448
    52 N2     *d2+      -0.0000    0.0000    0.0000    0.0000   -0.0000    0.0000    0.0000   -0.4003    0.0000    0.0000
    53 N2     *d2+       0.0000    0.0000   -0.0000   -0.0000    0.0000   -0.0000   -0.0000    0.2848   -0.0000   -0.0000
    54 N2     *f3-      -0.0000    0.0000    0.0000   -0.6233    0.0000   -0.0000    0.0000   -0.0000   -0.0000    0.0000
    55 N2     *f2-      -0.0000   -0.0000    0.0000    0.0000    0.0000    0.0000    0.4577    0.0000    0.0000   -0.0000
    56 N2     *f1-       0.0000   -0.2800   -0.0010   -0.0000    0.0000   -0.0000    0.0000    0.0000    0.0932   -0.0064
    57 N2     *f0       -0.2018    0.0000   -0.0000    0.0000   -0.0000   -0.0291    0.0000    0.0000    0.0000   -0.0000
    58 N2     *f1+       0.0000    0.0010   -0.2800    0.0000    0.0000    0.0000   -0.0000    0.0000    0.0064    0.0932
    59 N2     *f2+       0.0000   -0.0000   -0.0000   -0.0000    0.0000    0.0000   -0.0000    0.4577    0.0000    0.0000
    60 N2     *f3+       0.0000    0.0000   -0.0000   -0.0000   -0.6233    0.0000    0.0000    0.0000    0.0000    0.0000


      Orbital                41        42        43        44        45        46        47        48        49        50
      Energy             0.0000    0.0000    0.0000    0.0000    0.0000    0.0000    0.0000    0.0000    0.0000    0.0000
      Occ. No.           0.0000    0.0000    0.0000    0.0000    0.0000    0.0000    0.0000    0.0000    0.0000    0.0000

     1 N1     1s        -0.2731   -0.0000   -0.0000   -0.0000    0.0000    0.0000    0.0000   -0.0000    0.0000    1.4363
     2 N1     2s        -0.3675    0.0000   -0.0000    0.0000    0.0000    0.0000    0.0000   -0.0000    0.0000    3.3877
     3 N1     *s         1.5841    0.0000    0.0000   -0.0000   -0.0000    0.0000   -0.0000    0.0000    0.0000   -0.5841
     4 N1     *s        -0.0272    0.0000    0.0000    0.0000   -0.0000    0.0000   -0.0000    0.0000    0.0000   -2.3863
     5 N1     2px       -0.0000   -0.0032    0.2052   -0.0001   -0.0000    0.0000   -0.0000   -0.0000    0.0000   -0.0000
     6 N1     *px       -0.0000   -0.0482    3.0762   -0.0007   -0.0000    0.0000   -0.0000    0.0000   -0.0000    0.0000
     7 N1     *px       -0.0000   -0.0131    0.8372   -0.0002   -0.0000    0.0000   -0.0000    0.0000   -0.0000    0.0000
     8 N1     2py        0.0000   -0.2052   -0.0032   -0.0000    0.0001    0.0000    0.0000   -0.0000   -0.0000   -0.0000
     9 N1     *py        0.0000   -3.0762   -0.0482   -0.0000    0.0007    0.0000    0.0000    0.0000    0.0000    0.0000
    10 N1     *py        0.0000   -0.8372   -0.0131   -0.0000    0.0002    0.0000    0.0000    0.0000    0.0000   -0.0000
    11 N1     2pz        0.3064    0.0000    0.0000   -0.0000    0.0000   -0.0000    0.0000   -0.0000    0.0000    2.0658
    12 N1     *pz       -0.9190   -0.0000   -0.0000    0.0000   -0.0000    0.0000   -0.0000    0.0000    0.0000   -2.5023
    13 N1     *pz       -0.7653    0.0000   -0.0000    0.0000   -0.0000    0.0000   -0.0000   -0.0000    0.0000   -1.4172
    14 N1     *d2-       0.0000    0.0000   -0.0000   -0.0000   -0.0000   -0.0000   -0.5705   -0.0000    0.7065    0.0000
    15 N1     *d2-       0.0000    0.0000    0.0000    0.0000    0.0000    0.0000    0.9061    0.0000   -0.2447    0.0000
    16 N1     *d1-       0.0000   -0.0209   -0.0003    0.0000   -0.0000    0.0000    0.0000    0.0000    0.0000    0.0000
    17 N1     *d1-       0.0000   -2.2253   -0.0349   -0.0000    0.0005    0.0000    0.0000    0.0000    0.0000   -0.0000
    18 N1     *d0        0.5295    0.0000    0.0000   -0.0000    0.0000    0.0000   -0.0000    0.0000   -0.0000   -0.0449
    19 N1     *d0       -1.2081   -0.0000   -0.0000    0.0000    0.0000    0.0000   -0.0000   -0.0000    0.0000   -1.2345
    20 N1     *d1+      -0.0000   -0.0003    0.0209    0.0000    0.0000    0.0000   -0.0000    0.0000   -0.0000   -0.0000
    21 N1     *d1+      -0.0000   -0.0349    2.2253   -0.0005   -0.0000    0.0000   -0.0000    0.0000   -0.0000    0.0000
    22 N1     *d2+      -0.0000   -0.0000   -0.0000   -0.0000    0.0000   -0.5705    0.0000    0.7065    0.0000    0.0000
    23 N1     *d2+      -0.0000    0.0000   -0.0000    0.0000   -0.0000    0.9061   -0.0000   -0.2447   -0.0000   -0.0000
    24 N1     *f3-      -0.0000   -0.0002   -0.0000    0.0000   -0.8373   -0.0000    0.0000   -0.0000    0.0000    0.0000
    25 N1     *f2-       0.0000    0.0000    0.0000    0.0000    0.0000    0.0000    0.7207    0.0000   -0.4223   -0.0000
    26 N1     *f1-       0.0000   -1.0841   -0.0170   -0.0000    0.0003    0.0000    0.0000    0.0000    0.0000   -0.0000
    27 N1     *f0       -0.5883    0.0000   -0.0000   -0.0000    0.0000   -0.0000    0.0000   -0.0000    0.0000   -0.5672
    28 N1     *f1+      -0.0000   -0.0170    1.0841   -0.0003   -0.0000    0.0000   -0.0000    0.0000   -0.0000    0.0000
    29 N1     *f2+       0.0000    0.0000   -0.0000    0.0000   -0.0000    0.7207   -0.0000   -0.4223   -0.0000   -0.0000
    30 N1     *f3+      -0.0000    0.0000   -0.0002   -0.8373   -0.0000    0.0000    0.0000    0.0000    0.0000   -0.0000
    31 N2     1s        -0.2728   -0.0000   -0.0000    0.0000   -0.0000   -0.0000    0.0000   -0.0000   -0.0000    1.4353
    32 N2     2s        -0.3668   -0.0000   -0.0000    0.0000   -0.0000   -0.0000    0.0000   -0.0000   -0.0000    3.3848
    33 N2     *s         1.5839    0.0000    0.0000   -0.0000   -0.0000   -0.0000   -0.0000    0.0000   -0.0000   -0.5835
    34 N2     *s        -0.0278   -0.0000   -0.0000   -0.0000    0.0000   -0.0000   -0.0000    0.0000   -0.0000   -2.3853
    35 N2     2px       -0.0000    0.0032   -0.2051    0.0000   -0.0000   -0.0000    0.0000   -0.0000    0.0000    0.0000
    36 N2     *px        0.0000    0.0482   -3.0763    0.0007    0.0000   -0.0000    0.0000   -0.0000    0.0000   -0.0000
    37 N2     *px        0.0000    0.0131   -0.8372    0.0002    0.0000   -0.0000    0.0000   -0.0000    0.0000   -0.0000
    38 N2     2py        0.0000    0.2051    0.0032   -0.0000   -0.0000   -0.0000   -0.0000   -0.0000   -0.0000   -0.0000
    39 N2     *py       -0.0000    3.0763    0.0482    0.0000   -0.0007   -0.0000   -0.0000   -0.0000   -0.0000    0.0000
    40 N2     *py       -0.0000    0.8372    0.0131    0.0000   -0.0002   -0.0000   -0.0000   -0.0000   -0.0000    0.0000
    41 N2     2pz       -0.3067    0.0000    0.0000   -0.0000    0.0000   -0.0000   -0.0000    0.0000   -0.0000   -2.0657
    42 N2     *pz        0.9190    0.0000    0.0000    0.0000   -0.0000    0.0000    0.0000   -0.0000    0.0000    2.5032
    43 N2     *pz        0.7654    0.0000    0.0000    0.0000   -0.0000    0.0000   -0.0000   -0.0000    0.0000    1.4172
    44 N2     *d2-       0.0000    0.0000    0.0000    0.0000    0.0000    0.0000    0.5712   -0.0000    0.7060   -0.0000
    45 N2     *d2-      -0.0000   -0.0000   -0.0000   -0.0000   -0.0000   -0.0000   -0.9064    0.0000   -0.2438    0.0000
    46 N2     *d1-      -0.0000   -0.0211   -0.0003   -0.0000    0.0000   -0.0000   -0.0000   -0.0000   -0.0000   -0.0000
    47 N2     *d1-       0.0000   -2.2252   -0.0349   -0.0000    0.0005    0.0000    0.0000    0.0000    0.0000    0.0000
    48 N2     *d0        0.5296    0.0000    0.0000   -0.0000   -0.0000    0.0000   -0.0000    0.0000   -0.0000   -0.0450
    49 N2     *d0       -1.2081   -0.0000   -0.0000    0.0000    0.0000   -0.0000   -0.0000   -0.0000   -0.0000   -1.2348
    50 N2     *d1+       0.0000   -0.0003    0.0211   -0.0000   -0.0000   -0.0000    0.0000   -0.0000    0.0000    0.0000
    51 N2     *d1+      -0.0000   -0.0349    2.2252   -0.0005   -0.0000    0.0000   -0.0000    0.0000   -0.0000    0.0000
    52 N2     *d2+      -0.0000    0.0000   -0.0000    0.0000   -0.0000    0.5712   -0.0000    0.7060    0.0000    0.0000
    53 N2     *d2+       0.0000   -0.0000    0.0000   -0.0000    0.0000   -0.9064    0.0000   -0.2437   -0.0000   -0.0000
    54 N2     *f3-       0.0000    0.0002    0.0000   -0.0000    0.8373    0.0000   -0.0000    0.0000   -0.0000    0.0000
    55 N2     *f2-       0.0000    0.0000    0.0000    0.0000    0.0000    0.0000    0.7212   -0.0000    0.4215   -0.0000
    56 N2     *f1-      -0.0000    1.0841    0.0170    0.0000   -0.0003   -0.0000   -0.0000   -0.0000   -0.0000   -0.0000
    57 N2     *f0        0.5883    0.0000    0.0000   -0.0000    0.0000   -0.0000   -0.0000   -0.0000    0.0000    0.5673
    58 N2     *f1+       0.0000    0.0170   -1.0841    0.0003    0.0000   -0.0000    0.0000   -0.0000    0.0000    0.0000
    59 N2     *f2+      -0.0000    0.0000   -0.0000    0.0000   -0.0000    0.7212   -0.0000    0.4215    0.0000    0.0000
    60 N2     *f3+      -0.0000   -0.0000    0.0002    0.8373    0.0000   -0.0000   -0.0000   -0.0000   -0.0000   -0.0000


      Orbital                51        52        53        54        55        56        57        58        59        60
      Energy             0.0000    0.0000    0.0000    0.0000    0.0000    0.0000    0.0000    0.0000    0.0000    0.0000
      Occ. No.           0.0000    0.0000    0.0000    0.0000    0.0000    0.0000    0.0000    0.0000    0.0000    0.0000

     1 N1     1s         0.1241   -0.0000    0.0000   -0.0000   -0.0000   -0.1849    0.0000   -0.0000   -0.9359   -7.3143
     2 N1     2s         0.3359   -0.0000    0.0000    0.0000   -0.0000   -1.6537    0.0000   -0.0000   -1.9261  -22.6313
     3 N1     *s         0.9304   -0.0000    0.0000    0.0000   -0.0000   -1.5924    0.0000   -0.0000    3.8986    2.9828
     4 N1     *s         3.7116   -0.0000    0.0000   -0.0000   -0.0000    0.3462   -0.0000    0.0000    0.5098   -3.1274
     5 N1     2px       -0.0000   -1.5793   -0.0453   -0.0000    0.0000   -0.0000    0.0094    0.9093   -0.0000   -0.0000
     6 N1     *px       -0.0000    0.7792    0.0223   -0.0000    0.0000   -0.0000    0.0366    3.5358    0.0000    0.0000
     7 N1     *px        0.0000    0.5684    0.0163   -0.0000   -0.0000   -0.0000    0.0011    0.1051    0.0000    0.0000
     8 N1     2py        0.0000    0.0453   -1.5793    0.0000    0.0000    0.0000    0.9093   -0.0094    0.0000    0.0000
     9 N1     *py        0.0000   -0.0223    0.7792    0.0000    0.0000    0.0000    3.5358   -0.0366   -0.0000   -0.0000
    10 N1     *py       -0.0000   -0.0163    0.5684   -0.0000    0.0000    0.0000    0.1051   -0.0011   -0.0000   -0.0000
    11 N1     2pz        0.2990   -0.0000    0.0000    0.0000   -0.0000   -3.3963    0.0000   -0.0000    3.2924   -1.1309
    12 N1     *pz        0.3369    0.0000   -0.0000   -0.0000   -0.0000    0.5446   -0.0000    0.0000   -4.0091   -8.5518
    13 N1     *pz        1.1335    0.0000   -0.0000   -0.0000   -0.0000    1.1647   -0.0000    0.0000   -1.5595   -3.1743
    14 N1     *d2-      -0.0000   -0.0000    0.0000    0.7542    0.0000    0.0000   -0.0000    0.0000   -0.0000    0.0000
    15 N1     *d2-       0.0000   -0.0000    0.0000    0.3621    0.0000    0.0000   -0.0000    0.0000   -0.0000   -0.0000
    16 N1     *d1-       0.0000    0.0085   -0.2959    0.0000    0.0000    0.0000    1.7808   -0.0184   -0.0000    0.0000
    17 N1     *d1-       0.0000   -0.0144    0.5006    0.0000    0.0000    0.0000    2.0161   -0.0209   -0.0000   -0.0000
    18 N1     *d0       -0.2528   -0.0000    0.0000    0.0000   -0.0000   -1.3305    0.0000   -0.0000   -0.7525   -0.9151
    19 N1     *d0        0.8005    0.0000   -0.0000   -0.0000   -0.0000   -0.1057   -0.0000    0.0000   -1.5923   -2.3857
    20 N1     *d1+      -0.0000   -0.2959   -0.0085   -0.0000    0.0000   -0.0000    0.0184    1.7808    0.0000   -0.0000
    21 N1     *d1+      -0.0000    0.5006    0.0144   -0.0000    0.0000   -0.0000    0.0209    2.0161    0.0000    0.0000
    22 N1     *d2+      -0.0000    0.0000    0.0000   -0.0000    0.7542   -0.0000   -0.0000   -0.0000    0.0000    0.0000
    23 N1     *d2+       0.0000    0.0000    0.0000   -0.0000    0.3621    0.0000   -0.0000   -0.0000   -0.0000   -0.0000
    24 N1     *f3-       0.0000    0.0000   -0.0000   -0.0000    0.0000   -0.0000   -0.0000    0.0000    0.0000   -0.0000
    25 N1     *f2-       0.0000   -0.0000    0.0000    1.1580    0.0000    0.0000   -0.0000    0.0000   -0.0000   -0.0000
    26 N1     *f1-       0.0000   -0.0286    0.9966   -0.0000    0.0000    0.0000    1.3136   -0.0136   -0.0000    0.0000
    27 N1     *f0        1.0649    0.0000   -0.0000   -0.0000   -0.0000   -0.6181    0.0000   -0.0000   -1.0450   -0.3507
    28 N1     *f1+      -0.0000    0.9966    0.0286   -0.0000   -0.0000   -0.0000    0.0136    1.3136    0.0000   -0.0000
    29 N1     *f2+       0.0000    0.0000    0.0000   -0.0000    1.1580   -0.0000   -0.0000   -0.0000    0.0000   -0.0000
    30 N1     *f3+      -0.0000    0.0000    0.0000   -0.0000   -0.0000    0.0000    0.0000    0.0000    0.0000    0.0000
    31 N2     1s        -0.1241    0.0000    0.0000   -0.0000    0.0000    0.1848   -0.0000    0.0000   -0.9346    7.3147
    32 N2     2s        -0.3360    0.0000    0.0000   -0.0000    0.0000    1.6535   -0.0000    0.0000   -1.9222   22.6323
    33 N2     *s        -0.9305   -0.0000    0.0000    0.0000    0.0000    1.5923   -0.0000    0.0000    3.8981   -2.9836
    34 N2     *s        -3.7116    0.0000   -0.0000    0.0000    0.0000   -0.3461    0.0000   -0.0000    0.5097    3.1268
    35 N2     2px       -0.0000   -1.5793   -0.0453   -0.0000    0.0000    0.0000   -0.0094   -0.9092   -0.0000    0.0000
    36 N2     *px        0.0000    0.7790    0.0223    0.0000   -0.0000    0.0000   -0.0366   -3.5358    0.0000   -0.0000
    37 N2     *px        0.0000    0.5684    0.0163    0.0000   -0.0000   -0.0000   -0.0011   -0.1051    0.0000   -0.0000
    38 N2     2py       -0.0000    0.0453   -1.5793    0.0000    0.0000   -0.0000   -0.9092    0.0094    0.0000   -0.0000
    39 N2     *py       -0.0000   -0.0223    0.7790   -0.0000   -0.0000   -0.0000   -3.5358    0.0366   -0.0000    0.0000
    40 N2     *py       -0.0000   -0.0163    0.5684   -0.0000   -0.0000    0.0000   -0.1051    0.0011   -0.0000    0.0000
    41 N2     2pz        0.2991    0.0000   -0.0000   -0.0000   -0.0000   -3.3961    0.0000   -0.0000   -3.2926   -1.1306
    42 N2     *pz        0.3368   -0.0000    0.0000    0.0000   -0.0000    0.5444   -0.0000    0.0000    4.0078   -8.5521
    43 N2     *pz        1.1334   -0.0000    0.0000   -0.0000   -0.0000    1.1646   -0.0000    0.0000    1.5592   -3.1743
    44 N2     *d2-      -0.0000    0.0000   -0.0000   -0.7541   -0.0000   -0.0000    0.0000   -0.0000    0.0000    0.0000
    45 N2     *d2-      -0.0000    0.0000   -0.0000   -0.3621   -0.0000   -0.0000    0.0000   -0.0000    0.0000   -0.0000
    46 N2     *d1-       0.0000   -0.0085    0.2960   -0.0000    0.0000    0.0000    1.7808   -0.0184   -0.0000    0.0000
    47 N2     *d1-       0.0000    0.0144   -0.5005    0.0000    0.0000    0.0000    2.0162   -0.0209    0.0000   -0.0000
    48 N2     *d0        0.2528   -0.0000    0.0000   -0.0000    0.0000    1.3305   -0.0000    0.0000   -0.7523    0.9152
    49 N2     *d0       -0.8005    0.0000   -0.0000   -0.0000    0.0000    0.1058    0.0000    0.0000   -1.5919    2.3857
    50 N2     *d1+      -0.0000    0.2960    0.0085   -0.0000   -0.0000   -0.0000    0.0184    1.7808    0.0000   -0.0000
    51 N2     *d1+      -0.0000   -0.5005   -0.0144   -0.0000    0.0000   -0.0000    0.0209    2.0162    0.0000    0.0000
    52 N2     *d2+       0.0000   -0.0000   -0.0000    0.0000   -0.7541    0.0000    0.0000    0.0000    0.0000   -0.0000
    53 N2     *d2+      -0.0000   -0.0000   -0.0000    0.0000   -0.3621   -0.0000    0.0000    0.0000   -0.0000    0.0000
    54 N2     *f3-      -0.0000   -0.0000    0.0000    0.0000   -0.0000    0.0000    0.0000   -0.0000    0.0000    0.0000
    55 N2     *f2-      -0.0000   -0.0000    0.0000    1.1580    0.0000    0.0000   -0.0000    0.0000   -0.0000    0.0000
    56 N2     *f1-      -0.0000   -0.0286    0.9966   -0.0000   -0.0000   -0.0000   -1.3136    0.0136   -0.0000   -0.0000
    57 N2     *f0        1.0648   -0.0000    0.0000    0.0000   -0.0000   -0.6182    0.0000   -0.0000    1.0450   -0.3508
    58 N2     *f1+       0.0000    0.9966    0.0286    0.0000   -0.0000    0.0000   -0.0136   -1.3136    0.0000    0.0000
    59 N2     *f2+       0.0000    0.0000    0.0000   -0.0000    1.1580   -0.0000   -0.0000   -0.0000    0.0000   -0.0000
    60 N2     *f3+       0.0000   -0.0000   -0.0000    0.0000    0.0000   -0.0000   -0.0000   -0.0000   -0.0000   -0.0000
--

      Von Neumann Entropy (Root   1) =  0.09736


      Mulliken population analysis for root number:  1
      -----------------------------------------------


++    Molecular charges:
      ------------------

      Mulliken charges per centre and basis function type
      ---------------------------------------------------

                N1      N2    
      1s       1.9966  1.9967
      2s       1.6070  1.6071
      2px      1.2165  1.2165
      2pz      1.7169  1.7169
      2py      1.2165  1.2165
      *s      -0.0028 -0.0028
      *px     -0.2583 -0.2583
      *pz     -0.3366 -0.3365
      *py     -0.2583 -0.2583
      *d2+     0.0000  0.0000
      *d1+     0.0395  0.0395
      *d0      0.0160  0.0160
      *d1-     0.0395  0.0395
      *d2-     0.0000  0.0000
      *f3+     0.0000  0.0000
      *f2+     0.0000  0.0000
      *f1+     0.0039  0.0039
      *f0     -0.0005 -0.0005
      *f1-     0.0039  0.0039
      *f2-     0.0000  0.0000
      *f3-     0.0000  0.0000
      Total    6.9997  7.0003

      N-E      0.0003 -0.0003

      Total electronic charge=   14.000000

      Total            charge=   -0.000000
--



      Expectation values of various properties for root number:  1
      -----------------------------------------------------------

      Properties not supported for DMRGSCF 

++    Molecular properties:
      ---------------------

      Charge (e):
                      =   -0.0000
      Dipole Moment (Debye):
      Origin of the operator (Ang)=    0.0000    0.0000    0.0000
                   X= -6.3079E-09               Y= -1.3829E-07               Z= -9.5822E-07           Total=  9.6817E-07
      Quadrupole Moment (Debye*Ang):
      Origin of the operator (Ang)=    0.0000    0.0000    0.4000
                  XX= -9.0878E+00              XY=  1.3328E-09              XZ= -2.9591E-07              YY= -9.0878E+00
                  YZ= -9.1195E-08              ZZ= -1.1425E+01
      In traceless form (Debye*Ang)
                  XX=  1.1688E+00              XY=  1.9993E-09              XZ= -4.4386E-07              YY=  1.1688E+00
                  YZ= -1.3679E-07              ZZ= -2.3375E+00
--


      Input file to MOLDEN was generated!

      Average orbitals are written to the RASORB file
      Natural orbitals for root   1 are written to the RASORB.1 file
      Spin density orbitals for root   1 are written to the SPDORB.1 file

--- Stop Module: dmrgscf at Tue Apr  9 00:41:32 2024 /rc=_RC_ALL_IS_WELL_ ---
*** files: n2.GssOrb n2.guessorb.h5 n2.rasscf.molden n2.guessorb.molden n2.scf.molden n2.RasOrb n2.RasOrb.1 n2.dmrgscf.h5 n2.ScfOrb n2.scf.h5 n2.SpdOrb.1 xmldump
    saved to directory /public/home/xzzeng/work/HQC/N2/cc-pvtz/NO/PES/entropy/0.8/results/work_dir/n2/dmrg
--- Module dmrgscf spent 3 seconds ---

.##################.
.# Happy landing! #.
.##################.

    Timing: Wall=3.54 User=2.53 System=0.18
