 Entering Gaussian System, Link 0=g16
 Initial command:
 /public/home/zyli/senxu/soft/g16/l1.exe "/tmp/Gau-22906.inp" -scrdir="/tmp/"
 Entering Link 1 = /public/home/zyli/senxu/soft/g16/l1.exe PID=     22907.
  
 Copyright (c) 1988-2019, Gaussian, Inc.  All Rights Reserved.
  
 This is part of the Gaussian(R) 16 program.  It is based on
 the Gaussian(R) 09 system (copyright 2009, Gaussian, Inc.),
 the Gaussian(R) 03 system (copyright 2003, Gaussian, Inc.),
 the Gaussian(R) 98 system (copyright 1998, Gaussian, Inc.),
 the Gaussian(R) 94 system (copyright 1995, Gaussian, Inc.),
 the Gaussian 92(TM) system (copyright 1992, Gaussian, Inc.),
 the Gaussian 90(TM) system (copyright 1990, Gaussian, Inc.),
 the Gaussian 88(TM) system (copyright 1988, Gaussian, Inc.),
 the Gaussian 86(TM) system (copyright 1986, Carnegie Mellon
 University), and the Gaussian 82(TM) system (copyright 1983,
 Carnegie Mellon University). Gaussian is a federally registered
 trademark of Gaussian, Inc.
  
 This software contains proprietary and confidential information,
 including trade secrets, belonging to Gaussian, Inc.
  
 This software is provided under written license and may be
 used, copied, transmitted, or stored only in accord with that
 written license.
  
 The following legend is applicable only to US Government
 contracts under FAR:
  
                    RESTRICTED RIGHTS LEGEND
  
 Use, reproduction and disclosure by the US Government is
 subject to restrictions as set forth in subparagraphs (a)
 and (c) of the Commercial Computer Software - Restricted
 Rights clause in FAR 52.227-19.
  
 Gaussian, Inc.
 340 Quinnipiac St., Bldg. 40, Wallingford CT 06492
  
  
 ---------------------------------------------------------------
 Warning -- This program may not be used in any manner that
 competes with the business of Gaussian, Inc. or will provide
 assistance to any competitor of Gaussian, Inc.  The licensee
 of this program is prohibited from giving any competitor of
 Gaussian, Inc. access to this program.  By using this program,
 the user acknowledges that Gaussian, Inc. is engaged in the
 business of creating and licensing software in the field of
 computational chemistry and represents and warrants to the
 licensee that it is not a competitor of Gaussian, Inc. and that
 it will not use this program in any manner prohibited above.
 ---------------------------------------------------------------
  

 Cite this work as:
 Gaussian 16, Revision C.01,
 M. J. Frisch, G. W. Trucks, H. B. Schlegel, G. E. Scuseria, 
 M. A. Robb, J. R. Cheeseman, G. Scalmani, V. Barone, 
 G. A. Petersson, H. Nakatsuji, X. Li, M. Caricato, A. V. Marenich, 
 J. Bloino, B. G. Janesko, R. Gomperts, B. Mennucci, H. P. Hratchian, 
 J. V. Ortiz, A. F. Izmaylov, J. L. Sonnenberg, D. Williams-Young, 
 F. Ding, F. Lipparini, F. Egidi, J. Goings, B. Peng, A. Petrone, 
 T. Henderson, D. Ranasinghe, V. G. Zakrzewski, J. Gao, N. Rega, 
 G. Zheng, W. Liang, M. Hada, M. Ehara, K. Toyota, R. Fukuda, 
 J. Hasegawa, M. Ishida, T. Nakajima, Y. Honda, O. Kitao, H. Nakai, 
 T. Vreven, K. Throssell, J. A. Montgomery, Jr., J. E. Peralta, 
 F. Ogliaro, M. J. Bearpark, J. J. Heyd, E. N. Brothers, K. N. Kudin, 
 V. N. Staroverov, T. A. Keith, R. Kobayashi, J. Normand, 
 K. Raghavachari, A. P. Rendell, J. C. Burant, S. S. Iyengar, 
 J. Tomasi, M. Cossi, J. M. Millam, M. Klene, C. Adamo, R. Cammi, 
 J. W. Ochterski, R. L. Martin, K. Morokuma, O. Farkas, 
 J. B. Foresman, and D. J. Fox, Gaussian, Inc., Wallingford CT, 2019.
 
 ******************************************
 Gaussian 16:  ES64L-G16RevC.01  3-Jul-2019
                 2-Jun-2024 
 ******************************************
 %chk=is_6-31gd.chk
 %mem=8GB
 %nprocshared=8
 Will use up to    8 processors via shared memory.
 -------------------------------------------
 #p RHF/6-31g(d) nosymm int=nobasistransform
 -------------------------------------------
 1/38=1,172=1/1;
 2/12=2,15=1,17=6,18=5,40=1/2;
 3/5=1,6=6,7=1,11=1,25=1,30=1,60=-1,116=1/1,2,3;
 4//1;
 5/5=2,38=5/2;
 6/7=2,8=2,9=2,10=2,28=1/1;
 99/5=1,9=1/99;
 Leave Link    1 at Sun Jun  2 11:48:41 2024, MaxMem=  1073741824 cpu:               0.2 elap:               0.0
 (Enter /public/home/zyli/senxu/soft/g16/l101.exe)
 -----
 title
 -----
 Symbolic Z-matrix:
 Charge =  0 Multiplicity = 1
 C                     12.9214   10.4244   13.2878 
 O                     11.5824   9.911     13.2876 
 C                     10.6042   10.8518   13.2876 
 O                     10.829    12.047    13.2878 
 C                     9.2688    10.215    13.2876 
 C                     8.1558    10.959    13.2878 
 C                     6.7584    10.4256   13.2878 
 H                     8.2776    12.0418   13.2878 
 H                     13.5726   9.5494    13.2882 
 H                     13.1004   11.036    12.399 
 H                     13.1      11.0364   14.1764 
 H                     6.736     9.3314    13.2878 
 H                     6.2062    10.7838   14.167 
 H                     6.206     10.7838   12.4088 
 H                     9.238     9.1288    13.2876 
 C                     13.9298   11.8166   6.5456 
 C                     12.7434   12.4982   6.5968 
 C                     11.4786   11.824    6.6568 
 C                     11.4872   10.3746   6.6598 
 C                     12.7556   9.7074    6.6086 
 C                     13.937    10.397    6.5526 
 C                     10.252    12.5246   6.7016 
 C                     10.2766   9.647     6.7016 
 C                     9.0498    10.3476   6.6568 
 C                     9.0412    11.797    6.6598 
 C                     7.773     12.4642   6.6086 
 H                     7.7478    13.5474   6.5928 
 C                     6.5914    11.7746   6.5526 
 C                     6.5986    10.3548   6.5456 
 C                     7.785     9.6732    6.5968 
 H                     14.8682   12.3624   6.4926 
 H                     12.7672   13.581    6.5674 
 H                     12.7808   8.6242    6.5926 
 H                     14.8804   9.8596    6.5062 
 H                     5.648     12.312    6.5064 
 H                     5.6604    9.809     6.4924 
 H                     7.7614    8.5906    6.5672 
 C                     10.3184   8.1342    6.773 
 H                     9.378     7.7082    7.1232 
 H                     10.5412   7.6816    5.797 
 H                     11.0896   7.7936    7.4704 
 C                     10.21     14.0372   6.773 
 H                     9.439     14.378    7.4706 
 H                     11.1506   14.4634   7.1226 
 H                     9.9868    14.4898   5.797 
 
 ITRead=  0  0  0  0  0  0  0  0  0  0  0  0  0  0  0  0  0  0  0  0
 ITRead=  0  0  0  0  0  0  0  0  0  0  0  0  0  0  0  0  0  0  0  0
 ITRead=  0  0  0  0  0
 MicOpt= -1 -1 -1 -1 -1 -1 -1 -1 -1 -1 -1 -1 -1 -1 -1 -1 -1 -1 -1 -1
 MicOpt= -1 -1 -1 -1 -1 -1 -1 -1 -1 -1 -1 -1 -1 -1 -1 -1 -1 -1 -1 -1
 MicOpt= -1 -1 -1 -1 -1
 NAtoms=     45 NQM=       45 NQMF=       0 NMMI=      0 NMMIF=      0
                NMic=       0 NMicF=      0.
                    Isotopes and Nuclear Properties:
 (Nuclear quadrupole moments (NQMom) in fm**2, nuclear magnetic moments (NMagM)
  in nuclear magnetons)

  Atom         1           2           3           4           5           6           7           8           9          10
 IAtWgt=          12          16          12          16          12          12          12           1           1           1
 AtmWgt=  12.0000000  15.9949146  12.0000000  15.9949146  12.0000000  12.0000000  12.0000000   1.0078250   1.0078250   1.0078250
 NucSpn=           0           0           0           0           0           0           0           1           1           1
 AtZEff=  -0.0000000  -0.0000000  -0.0000000  -0.0000000  -0.0000000  -0.0000000  -0.0000000  -0.0000000  -0.0000000  -0.0000000
 NQMom=    0.0000000   0.0000000   0.0000000   0.0000000   0.0000000   0.0000000   0.0000000   0.0000000   0.0000000   0.0000000
 NMagM=    0.0000000   0.0000000   0.0000000   0.0000000   0.0000000   0.0000000   0.0000000   2.7928460   2.7928460   2.7928460
 AtZNuc=   6.0000000   8.0000000   6.0000000   8.0000000   6.0000000   6.0000000   6.0000000   1.0000000   1.0000000   1.0000000

  Atom        11          12          13          14          15          16          17          18          19          20
 IAtWgt=           1           1           1           1           1          12          12          12          12          12
 AtmWgt=   1.0078250   1.0078250   1.0078250   1.0078250   1.0078250  12.0000000  12.0000000  12.0000000  12.0000000  12.0000000
 NucSpn=           1           1           1           1           1           0           0           0           0           0
 AtZEff=  -0.0000000  -0.0000000  -0.0000000  -0.0000000  -0.0000000  -0.0000000  -0.0000000  -0.0000000  -0.0000000  -0.0000000
 NQMom=    0.0000000   0.0000000   0.0000000   0.0000000   0.0000000   0.0000000   0.0000000   0.0000000   0.0000000   0.0000000
 NMagM=    2.7928460   2.7928460   2.7928460   2.7928460   2.7928460   0.0000000   0.0000000   0.0000000   0.0000000   0.0000000
 AtZNuc=   1.0000000   1.0000000   1.0000000   1.0000000   1.0000000   6.0000000   6.0000000   6.0000000   6.0000000   6.0000000

  Atom        21          22          23          24          25          26          27          28          29          30
 IAtWgt=          12          12          12          12          12          12           1          12          12          12
 AtmWgt=  12.0000000  12.0000000  12.0000000  12.0000000  12.0000000  12.0000000   1.0078250  12.0000000  12.0000000  12.0000000
 NucSpn=           0           0           0           0           0           0           1           0           0           0
 AtZEff=  -0.0000000  -0.0000000  -0.0000000  -0.0000000  -0.0000000  -0.0000000  -0.0000000  -0.0000000  -0.0000000  -0.0000000
 NQMom=    0.0000000   0.0000000   0.0000000   0.0000000   0.0000000   0.0000000   0.0000000   0.0000000   0.0000000   0.0000000
 NMagM=    0.0000000   0.0000000   0.0000000   0.0000000   0.0000000   0.0000000   2.7928460   0.0000000   0.0000000   0.0000000
 AtZNuc=   6.0000000   6.0000000   6.0000000   6.0000000   6.0000000   6.0000000   1.0000000   6.0000000   6.0000000   6.0000000

  Atom        31          32          33          34          35          36          37          38          39          40
 IAtWgt=           1           1           1           1           1           1           1          12           1           1
 AtmWgt=   1.0078250   1.0078250   1.0078250   1.0078250   1.0078250   1.0078250   1.0078250  12.0000000   1.0078250   1.0078250
 NucSpn=           1           1           1           1           1           1           1           0           1           1
 AtZEff=  -0.0000000  -0.0000000  -0.0000000  -0.0000000  -0.0000000  -0.0000000  -0.0000000  -0.0000000  -0.0000000  -0.0000000
 NQMom=    0.0000000   0.0000000   0.0000000   0.0000000   0.0000000   0.0000000   0.0000000   0.0000000   0.0000000   0.0000000
 NMagM=    2.7928460   2.7928460   2.7928460   2.7928460   2.7928460   2.7928460   2.7928460   0.0000000   2.7928460   2.7928460
 AtZNuc=   1.0000000   1.0000000   1.0000000   1.0000000   1.0000000   1.0000000   1.0000000   6.0000000   1.0000000   1.0000000

  Atom        41          42          43          44          45
 IAtWgt=           1          12           1           1           1
 AtmWgt=   1.0078250  12.0000000   1.0078250   1.0078250   1.0078250
 NucSpn=           1           0           1           1           1
 AtZEff=  -0.0000000  -0.0000000  -0.0000000  -0.0000000  -0.0000000
 NQMom=    0.0000000   0.0000000   0.0000000   0.0000000   0.0000000
 NMagM=    2.7928460   0.0000000   2.7928460   2.7928460   2.7928460
 AtZNuc=   1.0000000   6.0000000   1.0000000   1.0000000   1.0000000
 Leave Link  101 at Sun Jun  2 11:48:41 2024, MaxMem=  1073741824 cpu:               0.8 elap:               0.1
 (Enter /public/home/zyli/senxu/soft/g16/l202.exe)
                          Input orientation:                          
 ---------------------------------------------------------------------
 Center     Atomic      Atomic             Coordinates (Angstroms)
 Number     Number       Type             X           Y           Z
 ---------------------------------------------------------------------
      1          6           0       12.921400   10.424399   13.287800
      2          8           0       11.582401    9.910999   13.287601
      3          6           0       10.604200   10.851801   13.287601
      4          8           0       10.829000   12.047000   13.287800
      5          6           0        9.268800   10.215000   13.287601
      6          6           0        8.155800   10.959001   13.287800
      7          6           0        6.758400   10.425600   13.287800
      8          1           0        8.277599   12.041800   13.287800
      9          1           0       13.572599    9.549399   13.288200
     10          1           0       13.100400   11.036000   12.399000
     11          1           0       13.099999   11.036401   14.176399
     12          1           0        6.736000    9.331400   13.287800
     13          1           0        6.206200   10.783800   14.167000
     14          1           0        6.206000   10.783800   12.408800
     15          1           0        9.238000    9.128799   13.287601
     16          6           0       13.929800   11.816601    6.545600
     17          6           0       12.743401   12.498199    6.596800
     18          6           0       11.478601   11.823999    6.656800
     19          6           0       11.487200   10.374599    6.659800
     20          6           0       12.755600    9.707400    6.608600
     21          6           0       13.937000   10.397000    6.552600
     22          6           0       10.252000   12.524600    6.701600
     23          6           0       10.276600    9.646999    6.701600
     24          6           0        9.049800   10.347600    6.656800
     25          6           0        9.041201   11.797000    6.659800
     26          6           0        7.773000   12.464200    6.608600
     27          1           0        7.747800   13.547400    6.592800
     28          6           0        6.591400   11.774599    6.552600
     29          6           0        6.598600   10.354800    6.545600
     30          6           0        7.785000    9.673201    6.596800
     31          1           0       14.868200   12.362400    6.492600
     32          1           0       12.767200   13.581000    6.567400
     33          1           0       12.780800    8.624200    6.592600
     34          1           0       14.880400    9.859600    6.506200
     35          1           0        5.648000   12.312000    6.506400
     36          1           0        5.660400    9.809000    6.492400
     37          1           0        7.761400    8.590600    6.567200
     38          6           0       10.318399    8.134200    6.773000
     39          1           0        9.378000    7.708200    7.123200
     40          1           0       10.541200    7.681600    5.797000
     41          1           0       11.089601    7.793600    7.470400
     42          6           0       10.210000   14.037200    6.773000
     43          1           0        9.439000   14.378000    7.470600
     44          1           0       11.150599   14.463400    7.122600
     45          1           0        9.986800   14.489799    5.797000
 ---------------------------------------------------------------------
                    Distance matrix (angstroms):
                    1          2          3          4          5
     1  C    0.000000
     2  O    1.434049   0.000000
     3  C    2.356287   1.357198   0.000000
     4  O    2.647824   2.264975   1.216156   0.000000
     5  C    3.658597   2.333488   1.479462   2.406335   0.000000
     6  C    4.795492   3.583281   2.450746   2.886129   1.338771
     7  C    6.163000   4.851371   3.869344   4.381635   2.519218
     8  H    4.917405   3.932179   2.613268   2.551406   2.078383
     9  H    1.090727   2.022781   3.241550   3.710168   4.354964
    10  H    1.093646   2.087956   2.656041   2.640330   4.018061
    11  H    1.093642   2.087964   2.655758   2.639764   4.017804
    12  H    6.281228   4.880936   4.156271   4.911938   2.682503
    13  H    6.782040   5.517124   4.485574   4.872263   3.236726
    14  H    6.782213   5.517224   4.485653   4.872417   3.236753
    15  H    3.904615   2.471448   2.198918   3.323730   1.086638
    16  C    6.957899   7.388923   7.579250   7.424642   8.351325
    17  C    7.007268   7.266935   7.214820   6.974094   7.877352
    18  C    6.928976   6.902019   6.758496   6.666474   7.172142
    19  C    6.781578   6.644677   6.703369   6.867353   6.991031
    20  C    6.719620   6.784313   7.109658   7.334659   7.551456
    21  C    6.811396   7.151264   7.528256   7.599019   8.196673
    22  C    7.410437   7.209458   6.804242   6.628655   7.048145
    23  C    7.139842   6.719391   6.703304   7.031585   6.686830
    24  C    7.678890   7.111414   6.829195   7.072742   6.635742
    25  C    7.801946   7.344552   6.874890   6.869433   6.817791
    26  C    8.676320   8.101816   7.431324   7.356963   7.204538
    27  H    9.018996   8.529240   7.761806   7.521171   7.631428
    28  C    9.341031   8.587394   7.893944   7.962058   7.413573
    29  C    9.243371   8.395821   7.857889   8.137388   7.252868
    30  C    8.468553   7.696988   7.355529   7.724658   6.874738
    31  H    7.329435   7.935860   8.163066   7.911344   9.062927
    32  H    7.426418   7.748145   7.568897   7.160555   8.290347
    33  H    6.934421   6.922070   7.383958   7.768577   7.725790
    34  H    7.081439   7.541010   8.078227   8.196869   8.809300
    35  H   10.121896   9.325589   8.525303   8.538171   7.968205
    36  H    9.963850   9.014170   8.467783   8.826128   7.704553
    37  H    8.669192   7.842658   7.639262   8.156184   7.076349
    38  C    7.379922   6.869843   7.064493   7.616649   6.918917
    39  H    7.611551   6.907355   7.027491   7.676775   6.655510
    40  H    8.324685   7.884378   8.134079   8.674770   8.009134
    41  H    6.642193   6.210158   6.589995   7.211204   6.558835
    42  C    7.927587   7.832563   7.262382   6.840079   7.611511
    43  H    7.848432   7.641058   6.901396   6.419149   7.155211
    44  H    7.580169   7.675809   7.165852   6.629638   7.719929
    45  H    9.013958   8.923029   8.350169   7.923929   8.654394
                    6          7          8          9         10
     6  C    0.000000
     7  C    1.495742   0.000000
     8  H    1.089628   2.218123   0.000000
     9  H    5.597204   6.870301   5.852272   0.000000
    10  H    5.024437   6.433002   5.006097   1.795447   0.000000
    11  H    5.024013   6.432617   5.005595   1.795389   1.777399
    12  H    2.159842   1.094429   3.118140   6.840074   6.648399
    13  H    2.145840   1.098283   2.578032   7.520630   7.121757
    14  H    2.145940   1.098223   2.578125   7.520896   6.899018
    15  H    2.126216   2.798233   3.067237   4.354957   4.398313
    16  C    8.918061   9.940881   8.800872   7.122531   5.963182
    17  C    8.257402   9.213326   8.057367   7.359200   5.994247
    18  C    7.467221   8.258691   7.366411   7.316700   6.018641
    19  C    7.441111   8.142146   7.550595   6.997537   5.998190
    20  C    8.205875   9.005217   8.373388   6.731234   5.950865
    21  C    8.893876   9.843578   8.949699   6.798494   5.940422
    22  C    7.086832   7.745261   6.892705   7.953710   6.541382
    23  C    7.042526   7.507462   7.287600   7.365897   6.508728
    24  C    6.718870   7.016178   6.887436   8.066493   7.060745
    25  C    6.739181   7.142990   6.676331   8.337923   7.070688
    26  C    6.857395   7.056700   6.711539   9.313886   7.996854
    27  H    7.189527   7.453024   6.882626   9.733482   8.286701
    28  C    6.962433   6.870997   6.948207   9.952736   8.780262
    29  C    6.946020   6.744465   7.149984   9.733858   8.774949
    30  C    6.823508   6.810983   7.114942   8.847964   7.986002
    31  H    9.654045  10.756151   9.471724   7.468048   6.306347
    32  H    8.561756   9.551230   8.227359   7.878555   6.371468
    33  H    8.465673   9.183684   8.762677   6.805439   6.295491
    34  H    9.613481  10.596100   9.713345   6.913906   6.267169
    35  H    7.355750   7.125930   7.278405  10.789997   9.585884
    36  H    7.329869   6.911097   7.616599  10.433273   9.578468
    37  H    7.136620   7.038444   7.572563   8.936508   8.276158
    38  C    7.422867   7.769603   7.866182   7.418924   6.914611
    39  H    7.075576   7.228337   7.615331   7.680618   7.263923
    40  H    8.517252   8.828997   8.958087   8.294343   7.835044
    41  H    7.243555   7.715495   7.732833   6.564671   6.232782
    42  C    7.492507   8.209739   7.082261   8.596235   7.000963
    43  H    6.868477   7.526413   6.375461   8.616641   6.990275
    44  H    7.698008   8.579332   7.219970   8.247916   6.587047
    45  H    8.481225   9.113307   8.063879   9.663518   8.075248
                   11         12         13         14         15
    11  H    0.000000
    12  H    6.648091   0.000000
    13  H    6.898432   1.778524   0.000000
    14  H    7.121477   1.778484   1.758200   0.000000
    15  H    4.398175   2.510189   3.564293   3.564315   0.000000
    16  C    7.715334  10.167804  10.899835   9.751968   8.642444
    17  C    7.727505   9.533465  10.148009   8.913816   8.270883
    18  C    7.732633   8.524991   9.234897   7.871965   7.500128
    19  C    7.716111   8.221469   9.187734   7.817258   7.109055
    20  C    7.691322   8.999371  10.058961   8.814659   7.570822
    21  C    7.696214   9.917299  10.857899   9.706341   8.309583
    22  C    8.136243   8.120149   8.667819   7.209205   7.478975
    23  C    8.110157   7.484215   8.578617   7.101706   6.687498
    24  C    8.568718   7.096231   8.042353   6.431405   6.744510
    25  C    8.576224   7.437978   8.088378   6.489679   7.147431
    26  C    9.364140   7.449934   7.899874   6.238714   7.607902
    27  H    9.615723   7.976304   8.208686   6.621215   8.158743
    28  C   10.051324   7.166104   7.688247   5.951915   7.704868
    29  C   10.047978   6.820813   7.643543   5.891968   7.343302
    30  C    9.357235   6.781350   7.812424   6.124215   6.868362
    31  H    7.995347  11.022449  11.679839  10.607880   9.398264
    32  H    8.030106   9.979892  10.422330   9.219307   8.799912
    33  H    7.964585   9.047952  10.259667   9.039914   7.591383
    34  H    7.961573  10.611331  11.609640  10.532808   8.852014
    35  H   10.769788   7.486996   7.831461   6.122506   8.306958
    36  H   10.765593   6.896556   7.755490   6.020939   7.709517
    37  H    9.611581   6.838618   8.061373   6.430683   6.901724
    38  C    8.424392   7.530570   8.865765   7.462871   6.678062
    39  H    8.641633   6.900524   8.314731   6.889011   6.327523
    40  H    9.381709   8.562329   9.923345   8.493144   7.739627
    41  H    7.715431   7.427033   8.810979   7.561657   6.249081
    42  C    8.495128   8.755333   9.015889   7.640607   8.214451
    43  H    8.338881   8.161752   8.258998   6.910599   7.837858
    44  H    8.080876   9.156189   9.360027   8.119878   8.373962
    45  H    9.582917   9.658616   9.903750   8.470229   9.241760
                   16         17         18         19         20
    16  C    0.000000
    17  C    1.369211   0.000000
    18  C    2.453731   1.434526   0.000000
    19  C    2.838786   2.468134   1.449429   0.000000
    20  C    2.414838   2.790851   2.472456   1.434090   0.000000
    21  C    1.419637   2.416955   2.844452   2.452247   1.369084
    22  C    3.748575   2.493744   1.413294   2.479913   3.770050
    23  C    4.251750   3.771662   2.487196   1.413047   2.481479
    24  C    5.097522   4.274502   2.842328   2.437551   3.761002
    25  C    4.889972   3.768545   2.437551   2.829512   4.262137
    26  C    6.191086   4.970531   3.760806   4.261964   5.694405
    27  H    6.419892   5.104593   4.110120   4.904515   6.310619
    28  C    7.338524   6.194568   4.888561   5.093167   6.501831
    29  C    7.475517   6.508100   5.097580   4.889974   6.191264
    30  C    6.508099   5.706694   4.274602   3.768582   4.970732
    31  H    1.086876   2.131682   3.436018   3.925617   3.394931
    32  H    2.113106   1.083461   2.180718   3.453686   3.873836
    33  H    3.393204   3.874182   3.455222   2.177571   1.083611
    34  H    2.176016   3.396642   3.931130   3.435495   2.132704
    35  H    8.296696   7.098419   5.852920   6.154130   7.570493
    36  H    8.509775   7.577044   6.159441   5.856579   7.096879
    37  H    6.961085   6.331709   4.927523   4.131926   5.117713
    38  C    5.162752   4.995615   3.869650   2.529486   2.905501
    39  H    6.158852   5.877679   4.644336   3.431202   3.958509
    40  H    5.398263   5.356211   4.333295   2.981876   3.109040
    41  H    5.010641   5.062755   4.130058   2.734358   2.679717
    42  C    4.338166   2.969460   2.553646   3.880554   5.025363
    43  H    5.252016   3.900800   3.368258   4.569435   5.792874
    44  H    3.881035   2.583699   2.700184   4.128653   5.045767
    45  H    4.822203   3.493565   3.173518   4.464358   5.585364
                   21         22         23         24         25
    21  C    0.000000
    22  C    4.257712   0.000000
    23  C    3.739416   2.877706   0.000000
    24  C    4.888560   2.487292   1.413466   0.000000
    25  C    5.093166   1.413217   2.480013   1.449429   0.000000
    26  C    6.501642   2.481479   3.770051   2.472355   1.433915
    27  H    6.944986   2.707208   4.649709   3.455144   2.177447
    28  C    7.473662   3.739612   4.257885   2.844453   2.452248
    29  C    7.338525   4.252023   3.748733   2.453732   2.838887
    30  C    6.194590   3.771942   2.493941   1.434619   2.468306
    31  H    2.175668   4.623775   5.338527   6.159558   5.856753
    32  H    3.392124   2.731341   4.658053   4.927670   4.132101
    33  H    2.116889   4.649713   2.707216   4.110303   4.904669
    34  H    1.086718   5.344389   4.612847   5.852924   6.154133
    35  H    8.507460   4.613038   5.344555   3.931123   3.435487
    36  H    8.297679   5.338636   4.623777   3.435862   3.925555
    37  H    6.434386   4.658058   2.731350   2.180608   3.453616
    38  C    4.273536   4.391483   1.515060   2.553818   3.880741
    39  H    5.323505   4.913179   2.178112   2.700310   4.128736
    40  H    4.413138   4.935239   2.179704   3.173497   4.464408
    41  H    3.965820   4.865695   2.164974   3.368330   4.569489
    42  C    5.214419   1.514867   4.391287   3.869459   2.529308
    43  H    6.076437   2.165045   4.865728   4.130118   2.734447
    44  H    4.962312   2.177996   4.913129   4.644366   3.431244
    45  H    5.738119   2.179596   4.935078   4.333017   2.981568
                   26         27         28         29         30
    26  C    0.000000
    27  H    1.083608   0.000000
    28  C    1.369257   2.117003   0.000000
    29  C    2.415109   3.393462   1.419835   0.000000
    30  C    2.791050   3.874380   2.417128   1.369213   0.000000
    31  H    7.096878   7.219028   8.297863   8.509968   7.577227
    32  H    5.117712   5.019577   6.434579   6.961355   6.331988
    33  H    6.310619   7.040525   6.945163   6.420030   5.104747
    34  H    7.570308   8.030028   8.507461   8.296685   7.098426
    35  H    2.132893   2.437794   1.086710   2.176191   3.396793
    36  H    3.395095   4.282867   2.175768   1.086714   2.131494
    37  H    3.873839   4.956885   3.392191   2.113048   1.083263
    38  C    5.025434   5.995264   5.214557   4.338165   2.969458
    39  H    5.045827   6.085650   4.962492   3.881131   2.583791
    40  H    5.585238   6.545532   5.737987   4.821877   3.493250
    41  H    5.792844   6.711485   6.076555   5.252056   3.900829
    42  C    2.905224   2.516904   4.273430   5.162750   4.995614
    43  H    2.679782   2.078602   3.966011   5.010952   5.063040
    44  H    3.958430   3.563535   5.323612   6.159076   5.877902
    45  H    3.108481   2.556274   4.412707   5.398011   5.356045
                   31         32         33         34         35
    31  H    0.000000
    32  H    2.429976   0.000000
    33  H    4.282684   4.956883   0.000000
    34  H    2.502867   4.279974   2.437621   0.000000
    35  H    9.220348   7.231673   8.030201   9.552564   0.000000
    36  H    9.555283   8.046130   7.218995   9.220149   2.503070
    37  H    8.046033   7.068389   5.019577   7.231476   4.280067
    38  C    6.217474   5.975494   2.517154   4.884674   6.271979
    39  H    7.225063   6.803335   3.563655   5.940170   5.957207
    40  H    6.412229   6.352284   2.556811   4.906659   6.774013
    41  H    6.008980   6.092926   2.078601   4.423595   7.138365
    42  C    4.958065   2.605698   5.995175   6.271855   4.884592
    43  H    5.873273   3.539477   6.711537   7.138266   4.423767
    44  H    4.316440   1.923610   6.085615   5.957041   5.940271
    45  H    5.370079   3.024906   6.545584   6.774144   4.906245
                   36         37         38         39         40
    36  H    0.000000
    37  H    2.429875   0.000000
    38  C    4.957887   2.605551   0.000000
    39  H    4.316459   1.923840   1.090168   0.000000
    40  H    5.369508   3.024364   1.098664   1.764242   0.000000
    41  H    5.873206   3.539478   1.094133   1.748548   1.764527
    42  C    6.217336   5.975236   5.903995   6.393051   6.438627
    43  H    6.009197   6.092985   6.343897   6.679120   6.989818
    44  H    7.225156   6.803302   6.393242   6.983898   6.936959
    45  H    6.411801   6.351863   6.438647   6.936824   6.830734
                   41         42         43         44         45
    41  H    0.000000
    42  C    6.343706   0.000000
    43  H    6.788137   1.094181   0.000000
    44  H    6.679140   1.090226   1.748705   0.000000
    45  H    6.989672   1.098745   1.764517   1.764183   0.000000
 Symmetry turned off by external request.
 Stoichiometry    C21H22O2
 Framework group  C1[X(C21H22O2)]
 Deg. of freedom   129
 Full point group                 C1      NOp   1
 Rotational constants (GHZ):           0.2426195           0.1421695           0.1114261
 Leave Link  202 at Sun Jun  2 11:48:42 2024, MaxMem=  1073741824 cpu:               0.1 elap:               0.0
 (Enter /public/home/zyli/senxu/soft/g16/l301.exe)
 Standard basis: 6-31G(d) (6D, 7F)
   389 basis functions,   732 primitive gaussians,   389 cartesian basis functions
    82 alpha electrons       82 beta electrons
       nuclear repulsion energy      1709.5558252913 Hartrees.
 IExCor=    0 DFT=F Ex=HF Corr=None ExCW=0 ScaHFX=  1.000000
 ScaDFX=  1.000000  1.000000  1.000000  1.000000 ScalE2=  1.000000  1.000000
 IRadAn=      5 IRanWt=     -1 IRanGd=            0 ICorTp=0 IEmpDi=  4
 NAtoms=   45 NActive=   45 NUniq=   45 SFac= 1.00D+00 NAtFMM=   60 NAOKFM=F Big=F
 Integral buffers will be    131072 words long.
 Raffenetti 1 integral format.
 Two-electron integral symmetry is turned off.
 Leave Link  301 at Sun Jun  2 11:48:42 2024, MaxMem=  1073741824 cpu:               0.3 elap:               0.1
 (Enter /public/home/zyli/senxu/soft/g16/l302.exe)
 NPDir=0 NMtPBC=     1 NCelOv=     1 NCel=       1 NClECP=     1 NCelD=      1
         NCelK=      1 NCelE2=     1 NClLst=     1 CellRange=     0.0.
 One-electron integrals computed using PRISM.
 NBasis=   389 RedAO= T EigKep=  1.76D-04  NBF=   389
 NBsUse=   389 1.00D-06 EigRej= -1.00D+00 NBFU=   389
 Leave Link  302 at Sun Jun  2 11:48:42 2024, MaxMem=  1073741824 cpu:               1.5 elap:               0.2
 (Enter /public/home/zyli/senxu/soft/g16/l303.exe)
 DipDrv:  MaxL=1.
 Leave Link  303 at Sun Jun  2 11:48:42 2024, MaxMem=  1073741824 cpu:               0.3 elap:               0.1
 (Enter /public/home/zyli/senxu/soft/g16/l401.exe)
 ExpMin= 1.61D-01 ExpMax= 5.48D+03 ExpMxC= 8.25D+02 IAcc=3 IRadAn=         5 AccDes= 0.00D+00
 Harris functional with IExCor=  205 and IRadAn=       5 diagonalized for initial guess.
 HarFok:  IExCor=  205 AccDes= 0.00D+00 IRadAn=         5 IDoV= 1 UseB2=F ITyADJ=14
 ICtDFT=  3500011 ScaDFX=  1.000000  1.000000  1.000000  1.000000
 FoFCou: FMM=F IPFlag=           0 FMFlag=      100000 FMFlg1=           0
         NFxFlg=           0 DoJE=T BraDBF=F KetDBF=T FulRan=T
         wScrn=  0.000000 ICntrl=       500 IOpCl=  0 I1Cent=   200000004 NGrid=           0
         NMat0=    1 NMatS0=      1 NMatT0=    0 NMatD0=    1 NMtDS0=    0 NMtDT0=    0
 Symmetry not used in FoFCou.
 Harris En= -959.176215340117    
 JPrj=0 DoOrth=F DoCkMO=F.
 Leave Link  401 at Sun Jun  2 11:48:43 2024, MaxMem=  1073741824 cpu:              10.7 elap:               1.4
 (Enter /public/home/zyli/senxu/soft/g16/l502.exe)
 Two-electron integral symmetry not used.
 Closed shell SCF:
 Using DIIS extrapolation, IDIIS=  1040.
 NGot=  1073741824 LenX=  1073431529 LenY=  1073279767
 Requested convergence on RMS density matrix=1.00D-08 within 128 cycles.
 Requested convergence on MAX density matrix=1.00D-06.
 Requested convergence on             energy=1.00D-06.
 No special actions if energy rises.
 Fock matrices will be formed incrementally for  20 cycles.
 Integral accuracy reduced to 1.0D-05 until final iterations.

 Cycle   1  Pass 0  IDiag  1:
 FoFJK:  IHMeth= 1 ICntrl=       0 DoSepK=F KAlg= 0 I1Cent=           0 FoldK=F
 IRaf= 700000000 NMat=       1 IRICut=       1 DoRegI=T DoRafI=F ISym2E= 0 IDoP0=0 IntGTp=1.
 FoFCou: FMM=F IPFlag=           0 FMFlag=      100000 FMFlg1=           0
         NFxFlg=           0 DoJE=F BraDBF=F KetDBF=F FulRan=T
         wScrn=  0.000000 ICntrl=         0 IOpCl=  0 I1Cent=           0 NGrid=           0
         NMat0=    1 NMatS0=      1 NMatT0=    0 NMatD0=    1 NMtDS0=    0 NMtDT0=    0
 Symmetry not used in FoFCou.
 E= -956.813333300261    
 DIIS: error= 6.69D-02 at cycle   1 NSaved=   1.
 NSaved= 1 IEnMin= 1 EnMin= -956.813333300261     IErMin= 1 ErrMin= 6.69D-02
 ErrMax= 6.69D-02  0.00D+00 EMaxC= 1.00D-01 BMatC= 1.49D+00 BMatP= 1.49D+00
 IDIUse=3 WtCom= 3.31D-01 WtEn= 6.69D-01
 Coeff-Com:  0.100D+01
 Coeff-En:   0.100D+01
 Coeff:      0.100D+01
 Gap=     0.307 Goal=   None    Shift=    0.000
 GapD=    0.307 DampG=1.000 DampE=0.500 DampFc=0.5000 IDamp=-1.
 Damping current iteration by 5.00D-01
 RMSDP=4.87D-03 MaxDP=1.67D-01              OVMax= 1.26D-01

 Cycle   2  Pass 0  IDiag  1:
 RMSU=  2.28D-03    CP:  9.50D-01
 E= -957.313700265026     Delta-E=       -0.500366964765 Rises=F Damp=T
 DIIS: error= 3.97D-02 at cycle   2 NSaved=   2.
 NSaved= 2 IEnMin= 2 EnMin= -957.313700265026     IErMin= 2 ErrMin= 3.97D-02
 ErrMax= 3.97D-02  0.00D+00 EMaxC= 1.00D-01 BMatC= 3.37D-01 BMatP= 1.49D+00
 IDIUse=3 WtCom= 6.03D-01 WtEn= 3.97D-01
 Coeff-Com: -0.721D+00 0.172D+01
 Coeff-En:   0.000D+00 0.100D+01
 Coeff:     -0.435D+00 0.143D+01
 Gap=     0.300 Goal=   None    Shift=    0.000
 RMSDP=2.49D-03 MaxDP=9.60D-02 DE=-5.00D-01 OVMax= 4.74D-02

 Cycle   3  Pass 0  IDiag  1:
 RMSU=  1.00D-03    CP:  9.03D-01  1.93D+00
 E= -957.764787734209     Delta-E=       -0.451087469184 Rises=F Damp=F
 DIIS: error= 5.53D-03 at cycle   3 NSaved=   3.
 NSaved= 3 IEnMin= 3 EnMin= -957.764787734209     IErMin= 3 ErrMin= 5.53D-03
 ErrMax= 5.53D-03  0.00D+00 EMaxC= 1.00D-01 BMatC= 4.68D-03 BMatP= 3.37D-01
 IDIUse=3 WtCom= 9.45D-01 WtEn= 5.53D-02
 Coeff-Com: -0.550D-01 0.777D-01 0.977D+00
 Coeff-En:   0.000D+00 0.000D+00 0.100D+01
 Coeff:     -0.520D-01 0.734D-01 0.979D+00
 Gap=     0.302 Goal=   None    Shift=    0.000
 RMSDP=2.92D-04 MaxDP=1.85D-02 DE=-4.51D-01 OVMax= 2.57D-02

 Cycle   4  Pass 0  IDiag  1:
 RMSU=  2.46D-04    CP:  9.01D-01  1.98D+00  1.11D+00
 E= -957.768129806513     Delta-E=       -0.003342072303 Rises=F Damp=F
 DIIS: error= 3.41D-03 at cycle   4 NSaved=   4.
 NSaved= 4 IEnMin= 4 EnMin= -957.768129806513     IErMin= 4 ErrMin= 3.41D-03
 ErrMax= 3.41D-03  0.00D+00 EMaxC= 1.00D-01 BMatC= 1.55D-03 BMatP= 4.68D-03
 IDIUse=3 WtCom= 9.66D-01 WtEn= 3.41D-02
 Coeff-Com:  0.124D-01-0.454D-01 0.366D+00 0.667D+00
 Coeff-En:   0.000D+00 0.000D+00 0.000D+00 0.100D+01
 Coeff:      0.120D-01-0.438D-01 0.354D+00 0.678D+00
 Gap=     0.303 Goal=   None    Shift=    0.000
 RMSDP=9.62D-05 MaxDP=7.02D-03 DE=-3.34D-03 OVMax= 8.31D-03

 Cycle   5  Pass 0  IDiag  1:
 RMSU=  7.83D-05    CP:  9.00D-01  1.99D+00  1.14D+00  8.35D-01
 E= -957.769445934478     Delta-E=       -0.001316127966 Rises=F Damp=F
 DIIS: error= 6.43D-04 at cycle   5 NSaved=   5.
 NSaved= 5 IEnMin= 5 EnMin= -957.769445934478     IErMin= 5 ErrMin= 6.43D-04
 ErrMax= 6.43D-04  0.00D+00 EMaxC= 1.00D-01 BMatC= 4.65D-05 BMatP= 1.55D-03
 IDIUse=3 WtCom= 9.94D-01 WtEn= 6.43D-03
 Coeff-Com:  0.262D-02-0.127D-02-0.101D+00-0.362D-01 0.114D+01
 Coeff-En:   0.000D+00 0.000D+00 0.000D+00 0.000D+00 0.100D+01
 Coeff:      0.260D-02-0.126D-02-0.101D+00-0.360D-01 0.114D+01
 Gap=     0.304 Goal=   None    Shift=    0.000
 RMSDP=4.22D-05 MaxDP=1.98D-03 DE=-1.32D-03 OVMax= 4.00D-03

 Cycle   6  Pass 0  IDiag  1:
 RMSU=  2.01D-05    CP:  9.00D-01  1.99D+00  1.16D+00  9.25D-01  1.22D+00
 E= -957.769568618598     Delta-E=       -0.000122684120 Rises=F Damp=F
 DIIS: error= 2.22D-04 at cycle   6 NSaved=   6.
 NSaved= 6 IEnMin= 6 EnMin= -957.769568618598     IErMin= 6 ErrMin= 2.22D-04
 ErrMax= 2.22D-04  0.00D+00 EMaxC= 1.00D-01 BMatC= 5.91D-06 BMatP= 4.65D-05
 IDIUse=3 WtCom= 9.98D-01 WtEn= 2.22D-03
 Coeff-Com: -0.311D-03 0.255D-02-0.389D-01-0.644D-01 0.114D+00 0.987D+00
 Coeff-En:   0.000D+00 0.000D+00 0.000D+00 0.000D+00 0.000D+00 0.100D+01
 Coeff:     -0.311D-03 0.255D-02-0.388D-01-0.643D-01 0.114D+00 0.987D+00
 Gap=     0.304 Goal=   None    Shift=    0.000
 RMSDP=1.39D-05 MaxDP=6.05D-04 DE=-1.23D-04 OVMax= 1.67D-03

 Cycle   7  Pass 0  IDiag  1:
 RMSU=  7.42D-06    CP:  9.00D-01  1.99D+00  1.16D+00  9.41D-01  1.33D+00
                    CP:  1.29D+00
 E= -957.769586563194     Delta-E=       -0.000017944595 Rises=F Damp=F
 DIIS: error= 1.13D-04 at cycle   7 NSaved=   7.
 NSaved= 7 IEnMin= 7 EnMin= -957.769586563194     IErMin= 7 ErrMin= 1.13D-04
 ErrMax= 1.13D-04  0.00D+00 EMaxC= 1.00D-01 BMatC= 1.12D-06 BMatP= 5.91D-06
 IDIUse=3 WtCom= 9.99D-01 WtEn= 1.13D-03
 Coeff-Com: -0.250D-03 0.135D-03 0.115D-01-0.603D-02-0.143D+00 0.128D+00
 Coeff-Com:  0.101D+01
 Coeff-En:   0.000D+00 0.000D+00 0.000D+00 0.000D+00 0.000D+00 0.000D+00
 Coeff-En:   0.100D+01
 Coeff:     -0.250D-03 0.135D-03 0.115D-01-0.602D-02-0.143D+00 0.128D+00
 Coeff:      0.101D+01
 Gap=     0.305 Goal=   None    Shift=    0.000
 RMSDP=6.27D-06 MaxDP=3.65D-04 DE=-1.79D-05 OVMax= 9.08D-04

 Initial convergence to 1.0D-05 achieved.  Increase integral accuracy.
 Cycle   8  Pass 1  IDiag  1:
 E= -957.769587499096     Delta-E=       -0.000000935902 Rises=F Damp=F
 DIIS: error= 6.23D-05 at cycle   1 NSaved=   1.
 NSaved= 1 IEnMin= 1 EnMin= -957.769587499096     IErMin= 1 ErrMin= 6.23D-05
 ErrMax= 6.23D-05  0.00D+00 EMaxC= 1.00D-01 BMatC= 6.72D-07 BMatP= 6.72D-07
 IDIUse=1 WtCom= 1.00D+00 WtEn= 0.00D+00
 Coeff-Com:  0.100D+01
 Coeff:      0.100D+01
 Gap=     0.305 Goal=   None    Shift=    0.000
 RMSDP=6.27D-06 MaxDP=3.65D-04 DE=-9.36D-07 OVMax= 3.06D-04

 Cycle   9  Pass 1  IDiag  1:
 RMSU=  1.90D-05    CP:  1.00D+00
 E= -957.769588370153     Delta-E=       -0.000000871057 Rises=F Damp=F
 DIIS: error= 2.79D-05 at cycle   2 NSaved=   2.
 NSaved= 2 IEnMin= 2 EnMin= -957.769588370153     IErMin= 2 ErrMin= 2.79D-05
 ErrMax= 2.79D-05  0.00D+00 EMaxC= 1.00D-01 BMatC= 7.10D-08 BMatP= 6.72D-07
 IDIUse=1 WtCom= 1.00D+00 WtEn= 0.00D+00
 Coeff-Com:  0.455D-01 0.954D+00
 Coeff:      0.455D-01 0.954D+00
 Gap=     0.305 Goal=   None    Shift=    0.000
 RMSDP=1.59D-06 MaxDP=7.12D-05 DE=-8.71D-07 OVMax= 1.66D-04

 Cycle  10  Pass 1  IDiag  1:
 RMSU=  1.36D-06    CP:  1.00D+00  1.04D+00
 E= -957.769588548612     Delta-E=       -0.000000178459 Rises=F Damp=F
 DIIS: error= 1.45D-05 at cycle   3 NSaved=   3.
 NSaved= 3 IEnMin= 3 EnMin= -957.769588548612     IErMin= 3 ErrMin= 1.45D-05
 ErrMax= 1.45D-05  0.00D+00 EMaxC= 1.00D-01 BMatC= 3.56D-08 BMatP= 7.10D-08
 IDIUse=1 WtCom= 1.00D+00 WtEn= 0.00D+00
 Coeff-Com: -0.768D-01 0.346D+00 0.730D+00
 Coeff:     -0.768D-01 0.346D+00 0.730D+00
 Gap=     0.305 Goal=   None    Shift=    0.000
 RMSDP=7.46D-07 MaxDP=2.47D-05 DE=-1.78D-07 OVMax= 9.64D-05

 Cycle  11  Pass 1  IDiag  1:
 RMSU=  7.16D-07    CP:  1.00D+00  1.05D+00  1.00D+00
 E= -957.769588622166     Delta-E=       -0.000000073554 Rises=F Damp=F
 DIIS: error= 9.73D-06 at cycle   4 NSaved=   4.
 NSaved= 4 IEnMin= 4 EnMin= -957.769588622166     IErMin= 4 ErrMin= 9.73D-06
 ErrMax= 9.73D-06  0.00D+00 EMaxC= 1.00D-01 BMatC= 5.55D-09 BMatP= 3.56D-08
 IDIUse=1 WtCom= 1.00D+00 WtEn= 0.00D+00
 Coeff-Com:  0.850D-02-0.401D+00-0.297D+00 0.169D+01
 Coeff:      0.850D-02-0.401D+00-0.297D+00 0.169D+01
 Gap=     0.305 Goal=   None    Shift=    0.000
 RMSDP=7.98D-07 MaxDP=4.38D-05 DE=-7.36D-08 OVMax= 1.26D-04

 Cycle  12  Pass 1  IDiag  1:
 RMSU=  2.07D-07    CP:  1.00D+00  1.06D+00  1.42D+00  1.72D+00
 E= -957.769588656122     Delta-E=       -0.000000033956 Rises=F Damp=F
 DIIS: error= 1.41D-06 at cycle   5 NSaved=   5.
 NSaved= 5 IEnMin= 5 EnMin= -957.769588656122     IErMin= 5 ErrMin= 1.41D-06
 ErrMax= 1.41D-06  0.00D+00 EMaxC= 1.00D-01 BMatC= 4.24D-10 BMatP= 5.55D-09
 IDIUse=1 WtCom= 1.00D+00 WtEn= 0.00D+00
 Coeff-Com:  0.762D-02-0.163D+00-0.157D+00 0.609D+00 0.703D+00
 Coeff:      0.762D-02-0.163D+00-0.157D+00 0.609D+00 0.703D+00
 Gap=     0.305 Goal=   None    Shift=    0.000
 RMSDP=9.26D-08 MaxDP=4.85D-06 DE=-3.40D-08 OVMax= 1.23D-05

 Cycle  13  Pass 1  IDiag  1:
 RMSU=  4.61D-08    CP:  1.00D+00  1.06D+00  1.44D+00  1.83D+00  1.04D+00
 E= -957.769588656797     Delta-E=       -0.000000000675 Rises=F Damp=F
 DIIS: error= 3.32D-07 at cycle   6 NSaved=   6.
 NSaved= 6 IEnMin= 6 EnMin= -957.769588656797     IErMin= 6 ErrMin= 3.32D-07
 ErrMax= 3.32D-07  0.00D+00 EMaxC= 1.00D-01 BMatC= 1.54D-11 BMatP= 4.24D-10
 IDIUse=1 WtCom= 1.00D+00 WtEn= 0.00D+00
 Coeff-Com: -0.102D-02 0.382D-01 0.250D-01-0.148D+00-0.278D-01 0.111D+01
 Coeff:     -0.102D-02 0.382D-01 0.250D-01-0.148D+00-0.278D-01 0.111D+01
 Gap=     0.305 Goal=   None    Shift=    0.000
 RMSDP=2.67D-08 MaxDP=1.04D-06 DE=-6.75D-10 OVMax= 2.63D-06

 Cycle  14  Pass 1  IDiag  1:
 RMSU=  1.66D-08    CP:  1.00D+00  1.05D+00  1.44D+00  1.84D+00  1.12D+00
                    CP:  1.17D+00
 E= -957.769588656833     Delta-E=       -0.000000000035 Rises=F Damp=F
 DIIS: error= 2.04D-07 at cycle   7 NSaved=   7.
 NSaved= 7 IEnMin= 7 EnMin= -957.769588656833     IErMin= 7 ErrMin= 2.04D-07
 ErrMax= 2.04D-07  0.00D+00 EMaxC= 1.00D-01 BMatC= 2.87D-12 BMatP= 1.54D-11
 IDIUse=1 WtCom= 1.00D+00 WtEn= 0.00D+00
 Coeff-Com: -0.955D-03 0.229D-01 0.180D-01-0.822D-01-0.775D-01 0.144D+00
 Coeff-Com:  0.976D+00
 Coeff:     -0.955D-03 0.229D-01 0.180D-01-0.822D-01-0.775D-01 0.144D+00
 Coeff:      0.976D+00
 Gap=     0.305 Goal=   None    Shift=    0.000
 RMSDP=9.63D-09 MaxDP=4.77D-07 DE=-3.55D-11 OVMax= 1.25D-06

 SCF Done:  E(RHF) =  -957.769588657     A.U. after   14 cycles
            NFock= 14  Conv=0.96D-08     -V/T= 2.0022
 KE= 9.557115594779D+02 PE=-5.654312293562D+03 EE= 2.031275320136D+03
 Leave Link  502 at Sun Jun  2 11:49:01 2024, MaxMem=  1073741824 cpu:             139.6 elap:              17.5
 (Enter /public/home/zyli/senxu/soft/g16/l601.exe)
 Copying SCF densities to generalized density rwf, IOpCl= 0 IROHF=0.

 **********************************************************************

            Population analysis using the SCF Density.

 **********************************************************************

 Alpha  occ. eigenvalues --  -20.59957 -20.53803 -11.37522 -11.27874 -11.26086
 Alpha  occ. eigenvalues --  -11.24325 -11.24317 -11.24160 -11.24120 -11.23954
 Alpha  occ. eigenvalues --  -11.23947 -11.23698 -11.23437 -11.23354 -11.23299
 Alpha  occ. eigenvalues --  -11.23282 -11.23230 -11.23184 -11.23122 -11.23114
 Alpha  occ. eigenvalues --  -11.23079 -11.22438 -11.22319  -1.44334  -1.34106
 Alpha  occ. eigenvalues --   -1.17717  -1.13580  -1.08956  -1.08173  -1.08028
 Alpha  occ. eigenvalues --   -1.01380  -0.99630  -0.99247  -0.97828  -0.97032
 Alpha  occ. eigenvalues --   -0.93842  -0.89164  -0.86482  -0.83633  -0.81153
 Alpha  occ. eigenvalues --   -0.80156  -0.75846  -0.74250  -0.73416  -0.70966
 Alpha  occ. eigenvalues --   -0.70339  -0.66177  -0.66141  -0.65633  -0.64146
 Alpha  occ. eigenvalues --   -0.63230  -0.61589  -0.60834  -0.59915  -0.59287
 Alpha  occ. eigenvalues --   -0.59050  -0.58231  -0.57809  -0.56923  -0.56792
 Alpha  occ. eigenvalues --   -0.55550  -0.54365  -0.53910  -0.53907  -0.52829
 Alpha  occ. eigenvalues --   -0.52643  -0.52562  -0.51906  -0.51235  -0.50941
 Alpha  occ. eigenvalues --   -0.48704  -0.48234  -0.46935  -0.45098  -0.44875
 Alpha  occ. eigenvalues --   -0.43603  -0.39880  -0.37970  -0.36846  -0.33632
 Alpha  occ. eigenvalues --   -0.30078  -0.24169
 Alpha virt. eigenvalues --    0.06315   0.11890   0.12000   0.15927   0.20900
 Alpha virt. eigenvalues --    0.23257   0.23353   0.24964   0.25388   0.25466
 Alpha virt. eigenvalues --    0.26597   0.27300   0.27433   0.28073   0.28360
 Alpha virt. eigenvalues --    0.30280   0.31265   0.31435   0.31576   0.31855
 Alpha virt. eigenvalues --    0.32135   0.32234   0.32551   0.32982   0.33138
 Alpha virt. eigenvalues --    0.34030   0.34791   0.34834   0.36549   0.37650
 Alpha virt. eigenvalues --    0.38335   0.40584   0.41380   0.42690   0.44796
 Alpha virt. eigenvalues --    0.44899   0.45043   0.47096   0.47770   0.49624
 Alpha virt. eigenvalues --    0.50070   0.51667   0.52140   0.53613   0.54516
 Alpha virt. eigenvalues --    0.55293   0.56802   0.58183   0.58566   0.67416
 Alpha virt. eigenvalues --    0.68895   0.69119   0.70700   0.72360   0.72868
 Alpha virt. eigenvalues --    0.73486   0.73856   0.74168   0.74277   0.75050
 Alpha virt. eigenvalues --    0.76024   0.76376   0.76807   0.77877   0.78679
 Alpha virt. eigenvalues --    0.79212   0.79330   0.80110   0.80344   0.80363
 Alpha virt. eigenvalues --    0.81066   0.82113   0.82268   0.82772   0.83575
 Alpha virt. eigenvalues --    0.83594   0.84203   0.84469   0.85004   0.85691
 Alpha virt. eigenvalues --    0.86204   0.87065   0.87480   0.87707   0.88922
 Alpha virt. eigenvalues --    0.91406   0.92502   0.92600   0.94795   0.94870
 Alpha virt. eigenvalues --    0.94993   0.96711   0.98072   0.98969   0.99352
 Alpha virt. eigenvalues --    1.00973   1.01099   1.02388   1.02683   1.03990
 Alpha virt. eigenvalues --    1.04233   1.07469   1.09297   1.10817   1.10915
 Alpha virt. eigenvalues --    1.11240   1.11323   1.11584   1.11719   1.12304
 Alpha virt. eigenvalues --    1.12772   1.13328   1.13425   1.13574   1.15820
 Alpha virt. eigenvalues --    1.15965   1.16122   1.16875   1.18402   1.19615
 Alpha virt. eigenvalues --    1.19946   1.20291   1.20815   1.21379   1.21691
 Alpha virt. eigenvalues --    1.22827   1.23746   1.24127   1.25059   1.25680
 Alpha virt. eigenvalues --    1.26289   1.27032   1.27169   1.28401   1.28925
 Alpha virt. eigenvalues --    1.30709   1.31132   1.32020   1.32199   1.35868
 Alpha virt. eigenvalues --    1.36449   1.36826   1.37937   1.37997   1.42814
 Alpha virt. eigenvalues --    1.44664   1.45884   1.46265   1.46524   1.49386
 Alpha virt. eigenvalues --    1.50871   1.52542   1.53902   1.54136   1.57995
 Alpha virt. eigenvalues --    1.58427   1.58516   1.61760   1.63488   1.63840
 Alpha virt. eigenvalues --    1.64126   1.64851   1.66663   1.67174   1.68801
 Alpha virt. eigenvalues --    1.69126   1.71743   1.73759   1.75054   1.75680
 Alpha virt. eigenvalues --    1.77471   1.78312   1.78655   1.79707   1.79838
 Alpha virt. eigenvalues --    1.80449   1.82142   1.82478   1.85788   1.89070
 Alpha virt. eigenvalues --    1.90326   1.90505   1.95717   2.00811   2.02460
 Alpha virt. eigenvalues --    2.04424   2.05891   2.06521   2.06983   2.09544
 Alpha virt. eigenvalues --    2.10398   2.10868   2.11410   2.12395   2.14266
 Alpha virt. eigenvalues --    2.14651   2.18769   2.19170   2.19806   2.20037
 Alpha virt. eigenvalues --    2.21085   2.21250   2.22231   2.23602   2.24037
 Alpha virt. eigenvalues --    2.26859   2.28359   2.30588   2.32371   2.32480
 Alpha virt. eigenvalues --    2.32590   2.34075   2.34182   2.34801   2.37961
 Alpha virt. eigenvalues --    2.38052   2.38798   2.42213   2.42688   2.43649
 Alpha virt. eigenvalues --    2.44473   2.44879   2.47813   2.48761   2.50491
 Alpha virt. eigenvalues --    2.51128   2.51439   2.53563   2.54812   2.55029
 Alpha virt. eigenvalues --    2.55994   2.58692   2.59379   2.59683   2.61708
 Alpha virt. eigenvalues --    2.62755   2.62867   2.63123   2.64655   2.65155
 Alpha virt. eigenvalues --    2.66861   2.67413   2.69162   2.70958   2.72395
 Alpha virt. eigenvalues --    2.75300   2.76869   2.77364   2.79270   2.80714
 Alpha virt. eigenvalues --    2.81896   2.82274   2.88496   2.88724   2.92438
 Alpha virt. eigenvalues --    2.92570   2.97736   3.00211   3.01387   3.01427
 Alpha virt. eigenvalues --    3.01844   3.02093   3.04688   3.05718   3.06339
 Alpha virt. eigenvalues --    3.11314   3.11980   3.15402   3.17570   3.17991
 Alpha virt. eigenvalues --    3.18020   3.20995   3.27023   3.31619   3.32508
 Alpha virt. eigenvalues --    3.32821   3.35238   3.48425   3.51975   3.52067
 Alpha virt. eigenvalues --    3.55435   3.69122   3.83536   3.86961   4.38369
 Alpha virt. eigenvalues --    4.50387   4.51379   4.52243   4.53496   4.54395
 Alpha virt. eigenvalues --    4.55219   4.56349   4.60999   4.61357   4.63443
 Alpha virt. eigenvalues --    4.68280   4.71707   4.72421   4.74390   4.76492
 Alpha virt. eigenvalues --    4.78375   4.80037   4.90152   4.93339   4.95292
 Alpha virt. eigenvalues --    5.09121   5.31604
          Condensed to atoms (all electrons):
               1          2          3          4          5          6
     1  C    4.852937   0.171027  -0.029642   0.002133   0.004929  -0.000132
     2  O    0.171027   8.454079   0.267425  -0.081726  -0.080623   0.003036
     3  C   -0.029642   0.267425   4.010194   0.582026   0.427573  -0.050011
     4  O    0.002133  -0.081726   0.582026   8.168398  -0.083348   0.004372
     5  C    0.004929  -0.080623   0.427573  -0.083348   5.125372   0.619876
     6  C   -0.000132   0.003036  -0.050011   0.004372   0.619876   4.965239
     7  C    0.000001  -0.000034   0.002290   0.000259  -0.043107   0.322502
     8  H   -0.000009   0.000212  -0.002883   0.007873  -0.036647   0.386501
     9  H    0.394138  -0.032124   0.003585   0.000447   0.000056  -0.000001
    10  H    0.393765  -0.031400  -0.004313   0.003123  -0.000109   0.000009
    11  H    0.393016  -0.031757  -0.004353   0.003150  -0.000102   0.000009
    12  H    0.000000  -0.000003   0.000120  -0.000001   0.001954  -0.044197
    13  H   -0.000000   0.000000  -0.000072   0.000003  -0.000979  -0.037173
    14  H   -0.000000   0.000000  -0.000071   0.000003  -0.000984  -0.036780
    15  H   -0.000115   0.002460  -0.022394   0.001894   0.378656  -0.035184
    16  C   -0.000000   0.000000  -0.000000   0.000000   0.000000  -0.000000
    17  C   -0.000000   0.000000  -0.000000  -0.000000   0.000000  -0.000000
    18  C   -0.000000  -0.000000   0.000000  -0.000000   0.000000   0.000000
    19  C   -0.000000  -0.000000   0.000000  -0.000000  -0.000000  -0.000000
    20  C   -0.000000   0.000000  -0.000000  -0.000000  -0.000000  -0.000000
    21  C   -0.000000   0.000000  -0.000000   0.000000   0.000000   0.000000
    22  C   -0.000000   0.000000   0.000000  -0.000000  -0.000000   0.000000
    23  C   -0.000000  -0.000000   0.000000  -0.000000   0.000000  -0.000000
    24  C    0.000000  -0.000000  -0.000000   0.000000   0.000000   0.000000
    25  C    0.000000   0.000000   0.000000  -0.000000  -0.000000   0.000000
    26  C    0.000000  -0.000000  -0.000000  -0.000000   0.000000   0.000000
    27  H    0.000000   0.000000  -0.000000  -0.000000   0.000000  -0.000000
    28  C   -0.000000  -0.000000  -0.000000   0.000000   0.000000   0.000000
    29  C   -0.000000   0.000000  -0.000000   0.000000   0.000000   0.000000
    30  C   -0.000000   0.000000  -0.000000   0.000000   0.000000   0.000000
    31  H   -0.000000   0.000000   0.000000   0.000000   0.000000  -0.000000
    32  H    0.000000  -0.000000  -0.000000  -0.000000  -0.000000   0.000000
    33  H   -0.000000  -0.000000  -0.000000   0.000000  -0.000000  -0.000000
    34  H   -0.000000   0.000000   0.000000   0.000000   0.000000   0.000000
    35  H   -0.000000   0.000000  -0.000000   0.000000   0.000000   0.000000
    36  H   -0.000000   0.000000  -0.000000   0.000000  -0.000000  -0.000000
    37  H   -0.000000  -0.000000   0.000000   0.000000  -0.000000  -0.000000
    38  C   -0.000000  -0.000000  -0.000000   0.000000  -0.000000  -0.000000
    39  H    0.000000   0.000000  -0.000000  -0.000000   0.000000   0.000000
    40  H   -0.000000  -0.000000   0.000000  -0.000000   0.000000   0.000000
    41  H    0.000000   0.000000   0.000000   0.000000   0.000000   0.000000
    42  C    0.000000   0.000000  -0.000000  -0.000000  -0.000000  -0.000000
    43  H    0.000000  -0.000000  -0.000000   0.000000   0.000000   0.000000
    44  H   -0.000000  -0.000000  -0.000000   0.000000   0.000000   0.000000
    45  H   -0.000000   0.000000   0.000000  -0.000000  -0.000000   0.000000
               7          8          9         10         11         12
     1  C    0.000001  -0.000009   0.394138   0.393765   0.393016   0.000000
     2  O   -0.000034   0.000212  -0.032124  -0.031400  -0.031757  -0.000003
     3  C    0.002290  -0.002883   0.003585  -0.004313  -0.004353   0.000120
     4  O    0.000259   0.007873   0.000447   0.003123   0.003150  -0.000001
     5  C   -0.043107  -0.036647   0.000056  -0.000109  -0.000102   0.001954
     6  C    0.322502   0.386501  -0.000001   0.000009   0.000009  -0.044197
     7  C    5.108526  -0.033436  -0.000000  -0.000000  -0.000000   0.395620
     8  H   -0.033436   0.442181   0.000000  -0.000001  -0.000001   0.002416
     9  H   -0.000000   0.000000   0.511136  -0.028400  -0.028898   0.000000
    10  H   -0.000000  -0.000001  -0.028400   0.514882  -0.033857  -0.000000
    11  H   -0.000000  -0.000001  -0.028898  -0.033857   0.521490  -0.000000
    12  H    0.395620   0.002416   0.000000  -0.000000  -0.000000   0.506538
    13  H    0.387512  -0.000628   0.000000   0.000000  -0.000000  -0.023804
    14  H    0.388004  -0.000620   0.000000  -0.000000   0.000000  -0.023442
    15  H   -0.001918   0.002720  -0.000021   0.000004   0.000004   0.002617
    16  C    0.000000   0.000000  -0.000000   0.000000  -0.000000   0.000000
    17  C   -0.000000   0.000000  -0.000000   0.000000  -0.000000  -0.000000
    18  C   -0.000000  -0.000000  -0.000000   0.000000   0.000000   0.000000
    19  C   -0.000000  -0.000000  -0.000000   0.000000   0.000000  -0.000000
    20  C   -0.000000  -0.000000  -0.000000   0.000000   0.000000  -0.000000
    21  C    0.000000   0.000000   0.000000   0.000000   0.000000   0.000000
    22  C    0.000000   0.000000   0.000000  -0.000000   0.000000   0.000000
    23  C    0.000000   0.000000   0.000000  -0.000000   0.000000  -0.000000
    24  C    0.000000   0.000000   0.000000  -0.000000  -0.000000   0.000000
    25  C    0.000000   0.000000   0.000000  -0.000000  -0.000000   0.000000
    26  C   -0.000000   0.000000  -0.000000  -0.000000  -0.000000  -0.000000
    27  H   -0.000000  -0.000000  -0.000000   0.000000  -0.000000  -0.000000
    28  C   -0.000000  -0.000000  -0.000000   0.000000   0.000000  -0.000000
    29  C   -0.000000  -0.000000  -0.000000   0.000000   0.000000  -0.000000
    30  C   -0.000000  -0.000000  -0.000000  -0.000000  -0.000000   0.000000
    31  H    0.000000   0.000000  -0.000000   0.000000  -0.000000   0.000000
    32  H    0.000000  -0.000000  -0.000000  -0.000000   0.000000  -0.000000
    33  H    0.000000  -0.000000   0.000000  -0.000000  -0.000000  -0.000000
    34  H   -0.000000   0.000000   0.000000   0.000000   0.000000   0.000000
    35  H   -0.000000  -0.000000   0.000000  -0.000000  -0.000000  -0.000000
    36  H   -0.000000  -0.000000   0.000000  -0.000000  -0.000000  -0.000000
    37  H    0.000000  -0.000000  -0.000000   0.000000   0.000000   0.000000
    38  C   -0.000000   0.000000  -0.000000  -0.000000   0.000000  -0.000000
    39  H   -0.000000   0.000000  -0.000000  -0.000000  -0.000000   0.000000
    40  H    0.000000   0.000000  -0.000000   0.000000  -0.000000   0.000000
    41  H   -0.000000   0.000000   0.000000   0.000000   0.000000   0.000000
    42  C   -0.000000   0.000000   0.000000  -0.000000  -0.000000  -0.000000
    43  H   -0.000000   0.000000  -0.000000  -0.000000  -0.000000   0.000000
    44  H   -0.000000  -0.000000  -0.000000   0.000000  -0.000000  -0.000000
    45  H    0.000000  -0.000000  -0.000000   0.000000   0.000000   0.000000
              13         14         15         16         17         18
     1  C   -0.000000  -0.000000  -0.000115  -0.000000  -0.000000  -0.000000
     2  O    0.000000   0.000000   0.002460   0.000000   0.000000  -0.000000
     3  C   -0.000072  -0.000071  -0.022394  -0.000000  -0.000000   0.000000
     4  O    0.000003   0.000003   0.001894   0.000000  -0.000000  -0.000000
     5  C   -0.000979  -0.000984   0.378656   0.000000   0.000000   0.000000
     6  C   -0.037173  -0.036780  -0.035184  -0.000000  -0.000000   0.000000
     7  C    0.387512   0.388004  -0.001918   0.000000  -0.000000  -0.000000
     8  H   -0.000628  -0.000620   0.002720   0.000000   0.000000  -0.000000
     9  H    0.000000   0.000000  -0.000021  -0.000000  -0.000000  -0.000000
    10  H    0.000000  -0.000000   0.000004   0.000000   0.000000   0.000000
    11  H   -0.000000   0.000000   0.000004  -0.000000  -0.000000   0.000000
    12  H   -0.023804  -0.023442   0.002617   0.000000  -0.000000   0.000000
    13  H    0.522295  -0.030635   0.000045  -0.000000   0.000000   0.000000
    14  H   -0.030635   0.517210   0.000043  -0.000000   0.000000   0.000000
    15  H    0.000045   0.000043   0.456579   0.000000   0.000000  -0.000000
    16  C   -0.000000  -0.000000   0.000000   4.916437   0.599109  -0.034782
    17  C    0.000000   0.000000   0.000000   0.599109   4.954506   0.462522
    18  C    0.000000   0.000000  -0.000000  -0.034782   0.462522   4.736899
    19  C   -0.000000   0.000000   0.000000  -0.023239  -0.032187   0.525720
    20  C    0.000000   0.000000   0.000000  -0.044674  -0.040381  -0.031778
    21  C    0.000000  -0.000000   0.000000   0.470128  -0.044526  -0.023141
    22  C   -0.000000  -0.000000  -0.000000   0.003228  -0.051449   0.544733
    23  C   -0.000000  -0.000000   0.000000  -0.000599   0.006517  -0.035768
    24  C    0.000000  -0.000000   0.000000   0.000080  -0.000009  -0.026889
    25  C   -0.000000  -0.000000  -0.000000  -0.000238   0.003491  -0.030408
    26  C   -0.000000   0.000000   0.000000   0.000001  -0.000108   0.003548
    27  H    0.000000   0.000000  -0.000000   0.000000  -0.000002  -0.000034
    28  C    0.000000   0.000000   0.000000   0.000000   0.000001  -0.000243
    29  C    0.000000   0.000000   0.000000  -0.000000   0.000000   0.000080
    30  C    0.000000   0.000000   0.000000   0.000000  -0.000000  -0.000012
    31  H    0.000000   0.000000  -0.000000   0.381274  -0.027212   0.001005
    32  H   -0.000000  -0.000000  -0.000000  -0.028006   0.379296  -0.032005
    33  H   -0.000000   0.000000  -0.000000   0.002499   0.000195   0.001884
    34  H    0.000000  -0.000000   0.000000  -0.029401   0.002242   0.000406
    35  H   -0.000000   0.000000  -0.000000   0.000000  -0.000000   0.000002
    36  H   -0.000000   0.000000   0.000000   0.000000  -0.000000  -0.000000
    37  H   -0.000000   0.000000  -0.000000   0.000000   0.000000   0.000004
    38  C   -0.000000   0.000000   0.000000   0.000012  -0.000145   0.002081
    39  H    0.000000   0.000000   0.000000  -0.000000   0.000002  -0.000018
    40  H   -0.000000  -0.000000  -0.000000  -0.000001  -0.000001  -0.000045
    41  H    0.000000   0.000000   0.000000  -0.000011  -0.000005   0.000072
    42  C    0.000000   0.000000  -0.000000   0.000333  -0.009343  -0.037947
    43  H   -0.000000  -0.000000   0.000000   0.000004   0.000248   0.001052
    44  H    0.000000   0.000000   0.000000   0.000266  -0.001731  -0.003222
    45  H    0.000000  -0.000000  -0.000000  -0.000005   0.000238  -0.001140
              19         20         21         22         23         24
     1  C   -0.000000  -0.000000  -0.000000  -0.000000  -0.000000   0.000000
     2  O   -0.000000   0.000000   0.000000   0.000000  -0.000000  -0.000000
     3  C    0.000000  -0.000000  -0.000000   0.000000   0.000000  -0.000000
     4  O   -0.000000  -0.000000   0.000000  -0.000000  -0.000000   0.000000
     5  C   -0.000000  -0.000000   0.000000  -0.000000   0.000000   0.000000
     6  C   -0.000000  -0.000000   0.000000   0.000000  -0.000000   0.000000
     7  C   -0.000000  -0.000000   0.000000   0.000000   0.000000   0.000000
     8  H   -0.000000  -0.000000   0.000000   0.000000   0.000000   0.000000
     9  H   -0.000000  -0.000000   0.000000   0.000000   0.000000   0.000000
    10  H    0.000000   0.000000   0.000000  -0.000000  -0.000000  -0.000000
    11  H    0.000000   0.000000   0.000000   0.000000   0.000000  -0.000000
    12  H   -0.000000  -0.000000   0.000000   0.000000  -0.000000   0.000000
    13  H   -0.000000   0.000000   0.000000  -0.000000  -0.000000   0.000000
    14  H    0.000000   0.000000  -0.000000  -0.000000  -0.000000  -0.000000
    15  H    0.000000   0.000000   0.000000  -0.000000   0.000000   0.000000
    16  C   -0.023239  -0.044674   0.470128   0.003228  -0.000599   0.000080
    17  C   -0.032187  -0.040381  -0.044526  -0.051449   0.006517  -0.000009
    18  C    0.525720  -0.031778  -0.023141   0.544733  -0.035768  -0.026889
    19  C    4.741195   0.468426  -0.035356  -0.037665   0.543498  -0.030417
    20  C    0.468426   4.958071   0.598660   0.006724  -0.056618   0.003545
    21  C   -0.035356   0.598660   4.915157  -0.000582   0.003452  -0.000243
    22  C   -0.037665   0.006724  -0.000582   4.895921  -0.044712  -0.035722
    23  C    0.543498  -0.056618   0.003452  -0.044712   4.898275   0.544709
    24  C   -0.030417   0.003545  -0.000243  -0.035722   0.544709   4.736533
    25  C   -0.027159  -0.000013   0.000080   0.543174  -0.037746   0.525770
    26  C   -0.000014  -0.000001   0.000000  -0.056393   0.006723  -0.031813
    27  H    0.000005   0.000000   0.000000  -0.003864  -0.000093   0.001881
    28  C    0.000080   0.000000  -0.000000   0.003442  -0.000577  -0.023118
    29  C   -0.000237   0.000001   0.000000  -0.000595   0.003220  -0.034850
    30  C    0.003492  -0.000108   0.000001   0.006509  -0.051624   0.462544
    31  H    0.000459   0.002193  -0.029410  -0.000103   0.000008  -0.000000
    32  H    0.001627   0.000231   0.002450  -0.001119  -0.000095   0.000004
    33  H   -0.029471   0.380609  -0.029114  -0.000093  -0.003875  -0.000035
    34  H    0.001090  -0.027418   0.381170   0.000007  -0.000092   0.000002
    35  H   -0.000000  -0.000000   0.000000  -0.000092   0.000007   0.000406
    36  H    0.000002  -0.000000   0.000000   0.000008  -0.000103   0.001009
    37  H    0.000030  -0.000004  -0.000000  -0.000095  -0.001097  -0.032048
    38  C   -0.046497  -0.010319  -0.000061   0.000486   0.314001  -0.038154
    39  H    0.002011   0.000408   0.000006  -0.000011  -0.037235  -0.003229
    40  H   -0.001685  -0.000191  -0.000009   0.000007  -0.038665  -0.001114
    41  H   -0.003639  -0.001499   0.000186  -0.000002  -0.039271   0.001062
    42  C    0.002350  -0.000147   0.000003   0.313473   0.000486   0.002077
    43  H   -0.000020   0.000002  -0.000000  -0.039177  -0.000002   0.000072
    44  H    0.000118  -0.000005  -0.000008  -0.037061  -0.000011  -0.000019
    45  H   -0.000066   0.000002  -0.000000  -0.038774   0.000006  -0.000044
              25         26         27         28         29         30
     1  C    0.000000   0.000000   0.000000  -0.000000  -0.000000  -0.000000
     2  O    0.000000  -0.000000   0.000000  -0.000000   0.000000   0.000000
     3  C    0.000000  -0.000000  -0.000000  -0.000000  -0.000000  -0.000000
     4  O   -0.000000  -0.000000  -0.000000   0.000000   0.000000   0.000000
     5  C   -0.000000   0.000000   0.000000   0.000000   0.000000   0.000000
     6  C    0.000000   0.000000  -0.000000   0.000000   0.000000   0.000000
     7  C    0.000000  -0.000000  -0.000000  -0.000000  -0.000000  -0.000000
     8  H    0.000000   0.000000  -0.000000  -0.000000  -0.000000  -0.000000
     9  H    0.000000  -0.000000  -0.000000  -0.000000  -0.000000  -0.000000
    10  H   -0.000000  -0.000000   0.000000   0.000000   0.000000  -0.000000
    11  H   -0.000000  -0.000000  -0.000000   0.000000   0.000000  -0.000000
    12  H    0.000000  -0.000000  -0.000000  -0.000000  -0.000000   0.000000
    13  H   -0.000000  -0.000000   0.000000   0.000000   0.000000   0.000000
    14  H   -0.000000   0.000000   0.000000   0.000000   0.000000   0.000000
    15  H   -0.000000   0.000000  -0.000000   0.000000   0.000000   0.000000
    16  C   -0.000238   0.000001   0.000000   0.000000  -0.000000   0.000000
    17  C    0.003491  -0.000108  -0.000002   0.000001   0.000000  -0.000000
    18  C   -0.030408   0.003548  -0.000034  -0.000243   0.000080  -0.000012
    19  C   -0.027159  -0.000014   0.000005   0.000080  -0.000237   0.003492
    20  C   -0.000013  -0.000001   0.000000   0.000000   0.000001  -0.000108
    21  C    0.000080   0.000000   0.000000  -0.000000   0.000000   0.000001
    22  C    0.543174  -0.056393  -0.003864   0.003442  -0.000595   0.006509
    23  C   -0.037746   0.006723  -0.000093  -0.000577   0.003220  -0.051624
    24  C    0.525770  -0.031813   0.001881  -0.023118  -0.034850   0.462544
    25  C    4.742572   0.468441  -0.029247  -0.035470  -0.023213  -0.032156
    26  C    0.468441   4.956714   0.380524   0.598592  -0.044656  -0.040376
    27  H   -0.029247   0.380524   0.469823  -0.029124   0.002496   0.000196
    28  C   -0.035470   0.598592  -0.029124   4.916661   0.470155  -0.044646
    29  C   -0.023213  -0.044656   0.002496   0.470155   4.916752   0.599104
    30  C   -0.032156  -0.040376   0.000196  -0.044646   0.599104   4.956659
    31  H    0.000002  -0.000000   0.000000   0.000000   0.000000  -0.000000
    32  H    0.000031  -0.000004  -0.000000  -0.000000   0.000000   0.000000
    33  H    0.000005   0.000000  -0.000000   0.000000   0.000000  -0.000002
    34  H   -0.000000  -0.000000  -0.000000   0.000000   0.000000  -0.000000
    35  H    0.001087  -0.027293  -0.001425   0.381205  -0.029548   0.002242
    36  H    0.000459   0.002195  -0.000116  -0.029399   0.381306  -0.027453
    37  H    0.001630   0.000230   0.000011   0.002452  -0.028234   0.379354
    38  C    0.002351  -0.000147   0.000001   0.000003   0.000329  -0.009409
    39  H    0.000118  -0.000005   0.000000  -0.000009   0.000262  -0.001722
    40  H   -0.000066   0.000002  -0.000000  -0.000000  -0.000005   0.000244
    41  H   -0.000019   0.000002  -0.000000  -0.000000   0.000004   0.000249
    42  C   -0.046513  -0.010310   0.000553  -0.000058   0.000012  -0.000145
    43  H   -0.003620  -0.001533  -0.001763   0.000188  -0.000011  -0.000005
    44  H    0.002008   0.000405   0.000168   0.000006  -0.000000   0.000002
    45  H   -0.001703  -0.000212  -0.000249  -0.000010  -0.000001  -0.000001
              31         32         33         34         35         36
     1  C   -0.000000   0.000000  -0.000000  -0.000000  -0.000000  -0.000000
     2  O    0.000000  -0.000000  -0.000000   0.000000   0.000000   0.000000
     3  C    0.000000  -0.000000  -0.000000   0.000000  -0.000000  -0.000000
     4  O    0.000000  -0.000000   0.000000   0.000000   0.000000   0.000000
     5  C    0.000000  -0.000000  -0.000000   0.000000   0.000000  -0.000000
     6  C   -0.000000   0.000000  -0.000000   0.000000   0.000000  -0.000000
     7  C    0.000000   0.000000   0.000000  -0.000000  -0.000000  -0.000000
     8  H    0.000000  -0.000000  -0.000000   0.000000  -0.000000  -0.000000
     9  H   -0.000000  -0.000000   0.000000   0.000000   0.000000   0.000000
    10  H    0.000000  -0.000000  -0.000000   0.000000  -0.000000  -0.000000
    11  H   -0.000000   0.000000  -0.000000   0.000000  -0.000000  -0.000000
    12  H    0.000000  -0.000000  -0.000000   0.000000  -0.000000  -0.000000
    13  H    0.000000  -0.000000  -0.000000   0.000000  -0.000000  -0.000000
    14  H    0.000000  -0.000000   0.000000  -0.000000   0.000000   0.000000
    15  H   -0.000000  -0.000000  -0.000000   0.000000  -0.000000   0.000000
    16  C    0.381274  -0.028006   0.002499  -0.029401   0.000000   0.000000
    17  C   -0.027212   0.379296   0.000195   0.002242  -0.000000  -0.000000
    18  C    0.001005  -0.032005   0.001884   0.000406   0.000002  -0.000000
    19  C    0.000459   0.001627  -0.029471   0.001090  -0.000000   0.000002
    20  C    0.002193   0.000231   0.380609  -0.027418  -0.000000  -0.000000
    21  C   -0.029410   0.002450  -0.029114   0.381170   0.000000   0.000000
    22  C   -0.000103  -0.001119  -0.000093   0.000007  -0.000092   0.000008
    23  C    0.000008  -0.000095  -0.003875  -0.000092   0.000007  -0.000103
    24  C   -0.000000   0.000004  -0.000035   0.000002   0.000406   0.001009
    25  C    0.000002   0.000031   0.000005  -0.000000   0.001087   0.000459
    26  C   -0.000000  -0.000004   0.000000  -0.000000  -0.027293   0.002195
    27  H    0.000000  -0.000000  -0.000000  -0.000000  -0.001425  -0.000116
    28  C    0.000000  -0.000000   0.000000   0.000000   0.381205  -0.029399
    29  C    0.000000   0.000000   0.000000   0.000000  -0.029548   0.381306
    30  C   -0.000000   0.000000  -0.000002  -0.000000   0.002242  -0.027453
    31  H    0.471821  -0.001427  -0.000116  -0.000907  -0.000000   0.000000
    32  H   -0.001427   0.470973   0.000011  -0.000118   0.000000  -0.000000
    33  H   -0.000116   0.000011   0.471113  -0.001432  -0.000000   0.000000
    34  H   -0.000907  -0.000118  -0.001432   0.472335   0.000000  -0.000000
    35  H   -0.000000   0.000000  -0.000000   0.000000   0.472546  -0.000907
    36  H    0.000000  -0.000000   0.000000  -0.000000  -0.000907   0.473102
    37  H   -0.000000  -0.000000  -0.000000   0.000000  -0.000118  -0.001434
    38  C    0.000000   0.000001   0.000501  -0.000009   0.000000  -0.000003
    39  H   -0.000000  -0.000000   0.000171  -0.000000   0.000000   0.000004
    40  H    0.000000  -0.000000  -0.000237  -0.000001  -0.000000  -0.000000
    41  H    0.000000   0.000000  -0.001840   0.000003  -0.000000  -0.000000
    42  C   -0.000003  -0.001069   0.000001   0.000000  -0.000009   0.000000
    43  H   -0.000000   0.000070  -0.000000  -0.000000   0.000003   0.000000
    44  H    0.000004  -0.000325   0.000000   0.000000  -0.000000  -0.000000
    45  H   -0.000000  -0.000091  -0.000000  -0.000000  -0.000001   0.000000
              37         38         39         40         41         42
     1  C   -0.000000  -0.000000   0.000000  -0.000000   0.000000   0.000000
     2  O   -0.000000  -0.000000   0.000000  -0.000000   0.000000   0.000000
     3  C    0.000000  -0.000000  -0.000000   0.000000   0.000000  -0.000000
     4  O    0.000000   0.000000  -0.000000  -0.000000   0.000000  -0.000000
     5  C   -0.000000  -0.000000   0.000000   0.000000   0.000000  -0.000000
     6  C   -0.000000  -0.000000   0.000000   0.000000   0.000000  -0.000000
     7  C    0.000000  -0.000000  -0.000000   0.000000  -0.000000  -0.000000
     8  H   -0.000000   0.000000   0.000000   0.000000   0.000000   0.000000
     9  H   -0.000000  -0.000000  -0.000000  -0.000000   0.000000   0.000000
    10  H    0.000000  -0.000000  -0.000000   0.000000   0.000000  -0.000000
    11  H    0.000000   0.000000  -0.000000  -0.000000   0.000000  -0.000000
    12  H    0.000000  -0.000000   0.000000   0.000000   0.000000  -0.000000
    13  H   -0.000000  -0.000000   0.000000  -0.000000   0.000000   0.000000
    14  H    0.000000   0.000000   0.000000  -0.000000   0.000000   0.000000
    15  H   -0.000000   0.000000   0.000000  -0.000000   0.000000  -0.000000
    16  C    0.000000   0.000012  -0.000000  -0.000001  -0.000011   0.000333
    17  C    0.000000  -0.000145   0.000002  -0.000001  -0.000005  -0.009343
    18  C    0.000004   0.002081  -0.000018  -0.000045   0.000072  -0.037947
    19  C    0.000030  -0.046497   0.002011  -0.001685  -0.003639   0.002350
    20  C   -0.000004  -0.010319   0.000408  -0.000191  -0.001499  -0.000147
    21  C   -0.000000  -0.000061   0.000006  -0.000009   0.000186   0.000003
    22  C   -0.000095   0.000486  -0.000011   0.000007  -0.000002   0.313473
    23  C   -0.001097   0.314001  -0.037235  -0.038665  -0.039271   0.000486
    24  C   -0.032048  -0.038154  -0.003229  -0.001114   0.001062   0.002077
    25  C    0.001630   0.002351   0.000118  -0.000066  -0.000019  -0.046513
    26  C    0.000230  -0.000147  -0.000005   0.000002   0.000002  -0.010310
    27  H    0.000011   0.000001   0.000000  -0.000000  -0.000000   0.000553
    28  C    0.002452   0.000003  -0.000009  -0.000000  -0.000000  -0.000058
    29  C   -0.028234   0.000329   0.000262  -0.000005   0.000004   0.000012
    30  C    0.379354  -0.009409  -0.001722   0.000244   0.000249  -0.000145
    31  H   -0.000000   0.000000  -0.000000   0.000000   0.000000  -0.000003
    32  H   -0.000000   0.000001  -0.000000  -0.000000   0.000000  -0.001069
    33  H   -0.000000   0.000501   0.000171  -0.000237  -0.001840   0.000001
    34  H    0.000000  -0.000009  -0.000000  -0.000001   0.000003   0.000000
    35  H   -0.000118   0.000000   0.000000  -0.000000  -0.000000  -0.000009
    36  H   -0.001434  -0.000003   0.000004  -0.000000  -0.000000   0.000000
    37  H    0.472612  -0.001156  -0.000415  -0.000080   0.000071   0.000001
    38  C   -0.001156   5.128119   0.395672   0.386923   0.394777   0.000007
    39  H   -0.000415   0.395672   0.516813  -0.026827  -0.026178  -0.000000
    40  H   -0.000080   0.386923  -0.026827   0.533219  -0.031888  -0.000000
    41  H    0.000071   0.394777  -0.026178  -0.031888   0.527075  -0.000000
    42  C    0.000001   0.000007  -0.000000  -0.000000  -0.000000   5.129037
    43  H    0.000000  -0.000000  -0.000000   0.000000  -0.000000   0.394862
    44  H   -0.000000  -0.000000  -0.000000   0.000000  -0.000000   0.395860
    45  H   -0.000000  -0.000000   0.000000  -0.000000   0.000000   0.386704
              43         44         45
     1  C    0.000000  -0.000000  -0.000000
     2  O   -0.000000  -0.000000   0.000000
     3  C   -0.000000  -0.000000   0.000000
     4  O    0.000000   0.000000  -0.000000
     5  C    0.000000   0.000000  -0.000000
     6  C    0.000000   0.000000   0.000000
     7  C   -0.000000  -0.000000   0.000000
     8  H    0.000000  -0.000000  -0.000000
     9  H   -0.000000  -0.000000  -0.000000
    10  H   -0.000000   0.000000   0.000000
    11  H   -0.000000  -0.000000   0.000000
    12  H    0.000000  -0.000000   0.000000
    13  H   -0.000000   0.000000   0.000000
    14  H   -0.000000   0.000000  -0.000000
    15  H    0.000000   0.000000  -0.000000
    16  C    0.000004   0.000266  -0.000005
    17  C    0.000248  -0.001731   0.000238
    18  C    0.001052  -0.003222  -0.001140
    19  C   -0.000020   0.000118  -0.000066
    20  C    0.000002  -0.000005   0.000002
    21  C   -0.000000  -0.000008  -0.000000
    22  C   -0.039177  -0.037061  -0.038774
    23  C   -0.000002  -0.000011   0.000006
    24  C    0.000072  -0.000019  -0.000044
    25  C   -0.003620   0.002008  -0.001703
    26  C   -0.001533   0.000405  -0.000212
    27  H   -0.001763   0.000168  -0.000249
    28  C    0.000188   0.000006  -0.000010
    29  C   -0.000011  -0.000000  -0.000001
    30  C   -0.000005   0.000002  -0.000001
    31  H   -0.000000   0.000004  -0.000000
    32  H    0.000070  -0.000325  -0.000091
    33  H   -0.000000   0.000000  -0.000000
    34  H   -0.000000   0.000000  -0.000000
    35  H    0.000003  -0.000000  -0.000001
    36  H    0.000000  -0.000000   0.000000
    37  H    0.000000  -0.000000  -0.000000
    38  C   -0.000000  -0.000000  -0.000000
    39  H   -0.000000  -0.000000   0.000000
    40  H    0.000000   0.000000  -0.000000
    41  H   -0.000000  -0.000000   0.000000
    42  C    0.394862   0.395860   0.386704
    43  H    0.525236  -0.025873  -0.031859
    44  H   -0.025873   0.513268  -0.026698
    45  H   -0.031859  -0.026698   0.534075
 Mulliken charges:
               1
     1  C   -0.182046
     2  O   -0.640573
     3  C    0.820526
     4  O   -0.608607
     5  C   -0.312518
     6  C   -0.098066
     7  C   -0.526218
     8  H    0.232323
     9  H    0.180081
    10  H    0.186297
    11  H    0.181300
    12  H    0.182183
    13  H    0.183435
    14  H    0.187273
    15  H    0.214610
    16  C   -0.212415
    17  C   -0.201267
    18  C   -0.022575
    19  C   -0.022450
    20  C   -0.205717
    21  C   -0.208843
    22  C    0.029802
    23  C    0.027281
    24  C   -0.021991
    25  C   -0.023650
    26  C   -0.204512
    27  H    0.210261
    28  C   -0.210130
    29  C   -0.212372
    30  C   -0.202939
    31  H    0.202411
    32  H    0.209565
    33  H    0.209227
    34  H    0.202121
    35  H    0.201894
    36  H    0.201332
    37  H    0.208289
    38  C   -0.519365
    39  H    0.180183
    40  H    0.180420
    41  H    0.180850
    42  C   -0.520213
    43  H    0.182125
    44  H    0.182848
    45  H    0.179830
 Sum of Mulliken charges =  -0.00000
 Mulliken charges with hydrogens summed into heavy atoms:
               1
     1  C    0.365632
     2  O   -0.640573
     3  C    0.820526
     4  O   -0.608607
     5  C   -0.097908
     6  C    0.134257
     7  C    0.026673
    16  C   -0.010004
    17  C    0.008298
    18  C   -0.022575
    19  C   -0.022450
    20  C    0.003511
    21  C   -0.006722
    22  C    0.029802
    23  C    0.027281
    24  C   -0.021991
    25  C   -0.023650
    26  C    0.005749
    28  C   -0.008236
    29  C   -0.011040
    30  C    0.005349
    38  C    0.022089
    42  C    0.024590
 Electronic spatial extent (au):  <R**2>=         187033.8164
 Charge=             -0.0000 electrons
 Dipole moment (field-independent basis, Debye):
    X=             -0.9661    Y=             -1.4214    Z=             -0.0900  Tot=              1.7210
 Quadrupole moment (field-independent basis, Debye-Ang):
   XX=           -134.0623   YY=           -159.2945   ZZ=           -146.0383
   XY=            -26.3400   XZ=            -14.1478   YZ=            -20.3807
 Traceless Quadrupole moment (field-independent basis, Debye-Ang):
   XX=             12.4028   YY=            -12.8295   ZZ=              0.4267
   XY=            -26.3400   XZ=            -14.1478   YZ=            -20.3807
 Octapole moment (field-independent basis, Debye-Ang**2):
  XXX=          -3780.4693  YYY=          -4722.6060  ZZZ=          -3751.8143  XYY=          -1768.9979
  XXY=          -1643.5296  XXZ=          -1242.8853  XZZ=          -1662.3911  YZZ=          -1860.5059
  YYZ=          -1587.9323  XYZ=           -369.6854
 Hexadecapole moment (field-independent basis, Debye-Ang**3):
 XXXX=         -78583.5083 YYYY=        -101407.6916 ZZZZ=         -72641.9640 XXXY=         -43381.9257
 XXXZ=         -33340.9542 YYYX=         -49924.1580 YYYZ=         -44745.0181 ZZZX=         -40302.6770
 ZZZY=         -44307.9561 XXYY=         -34224.0473 XXZZ=         -28634.9473 YYZZ=         -35228.3575
 XXYZ=         -15924.8588 YYXZ=         -18129.1486 ZZXY=         -21101.9258
 N-N= 1.709555825291D+03 E-N=-5.654312291973D+03  KE= 9.557115594779D+02
 No NMR shielding tensors so no spin-rotation constants.
 Leave Link  601 at Sun Jun  2 11:49:01 2024, MaxMem=  1073741824 cpu:               1.0 elap:               0.2
 (Enter /public/home/zyli/senxu/soft/g16/l9999.exe)
 Unable to Open any file for archive entry.
 1\1\GINC-NODE9\SP\RHF\6-31G(d)\C21H22O2\XZZENG\02-Jun-2024\0\\#p RHF/6
 -31g(d) nosymm int=nobasistransform\\title\\0,1\C,0,12.9214,10.424399,
 13.2878\O,0,11.582401,9.910999,13.287601\C,0,10.6042,10.851801,13.2876
 01\O,0,10.829,12.047,13.2878\C,0,9.2688,10.215,13.287601\C,0,8.1558,10
 .959001,13.2878\C,0,6.7584,10.4256,13.2878\H,0,8.277599,12.0418,13.287
 8\H,0,13.572599,9.549399,13.2882\H,0,13.1004,11.036,12.399\H,0,13.0999
 99,11.036401,14.176399\H,0,6.736,9.3314,13.2878\H,0,6.2062,10.7838,14.
 167\H,0,6.206,10.7838,12.4088\H,0,9.238,9.128799,13.287601\C,0,13.9298
 ,11.816601,6.5456\C,0,12.743401,12.498199,6.5968\C,0,11.478601,11.8239
 99,6.6568\C,0,11.4872,10.374599,6.6598\C,0,12.7556,9.7074,6.6086\C,0,1
 3.937,10.397,6.5526\C,0,10.252,12.5246,6.7016\C,0,10.2766,9.646999,6.7
 016\C,0,9.0498,10.3476,6.6568\C,0,9.041201,11.797,6.6598\C,0,7.773,12.
 4642,6.6086\H,0,7.7478,13.5474,6.5928\C,0,6.5914,11.774599,6.5526\C,0,
 6.5986,10.3548,6.5456\C,0,7.785,9.673201,6.5968\H,0,14.8682,12.3624,6.
 4926\H,0,12.7672,13.581,6.5674\H,0,12.7808,8.6242,6.5926\H,0,14.8804,9
 .8596,6.5062\H,0,5.648,12.312,6.5064\H,0,5.6604,9.809,6.4924\H,0,7.761
 4,8.5906,6.5672\C,0,10.318399,8.1342,6.773\H,0,9.378,7.7082,7.1232\H,0
 ,10.5412,7.6816,5.797\H,0,11.089601,7.7936,7.4704\C,0,10.21,14.0372,6.
 773\H,0,9.439,14.378,7.4706\H,0,11.150599,14.4634,7.1226\H,0,9.9868,14
 .489799,5.797\\Version=ES64L-G16RevC.01\HF=-957.7695887\RMSD=9.631e-09
 \Dipole=-0.3800912,-0.5592323,-0.0353997\Quadrupole=9.2211502,-9.53840
 73,0.317257,-19.5831147,-10.5185719,-15.1525581\PG=C01 [X(C21H22O2)]\\
 @
 The archive entry for this job was punched.


 TIMES HAVE CHANGED. IN THE BIBLE WHEN AN ASS
 SPOKE IT WAS CONSIDERED A MIRACLE.
 Job cpu time:       0 days  0 hours  2 minutes 34.8 seconds.
 Elapsed time:       0 days  0 hours  0 minutes 19.6 seconds.
 File lengths (MBytes):  RWF=     85 Int=      0 D2E=      0 Chk=     11 Scr=      1
 Normal termination of Gaussian 16 at Sun Jun  2 11:49:01 2024.
