   This run of MOLCAS is using the pymolcas driver

                             OPE
                             OPE          NMOL  CASOP  ENMOLC A   SO
                 OPE        NMOLC        AS  OP EN  MO LC     AS  OP
                OPENM       OL CA        SO  PE NM  OL CA     SOP EN
                OP EN      MO   LC       AS  OP ENMOL  CASO   PENMOL
                OP  EN     MO   LC       AS  OP EN     MO     LC ASO
               OP   E  NMOL  C  AS       OP  EN MO     LC     AS  OP
               OP  E   NMO   LC AS        OPEN  MO     LCASOP EN   M
               O  PEN   MO  LCA  SO
            OPE   NMO   L   CAS    OP
        OPENMOL  CASOP     ENMOL   CASOPE
     OPENMOLCA   SOPENMOLCASOPEN   MOLCASOPE
    OPENMOLCAS   OP           EN   MOL    CAS
    OPENMOLCAS       OP  ENM        O     LCA
    OPENMOLCAS    OPEN  MOLCASO     P  E  NMO
    OPENMOLCAS     OP               E  N  MOL
    OPENMOLCA   SO           PENM   O  L  CAS    OPEN    MO    LCAS
    OPENMOLCA   SOP           ENM   O  L  CAS   OP  EN  MOLC  AS   O
    OPENMOLCA   SOPE           NM      O  LCA   S      OP  EN MO
    OPENMOLC                AS         O  PEN   M      OL  CA  SOPE
    OPENMO        LCASOPE  NMOL        C  ASO   P      ENMOLC     AS
    OPE     NMO      LCA  SO     P     E   NM   OL  CA SO  PE N   MO
          OPENMOLCA            SOPE   NMO        LCAS  O    P  ENMO
     OPENMOLCASOPENMOLCASOPENMOLCASOPENMOLCA
        OPENMOLCASOPENMOLCASOPENMOLCASOPE
            OPENMOLCASOPENMOLCASOPENM
               OPENMOLCASOPENMOLCA        version: o822a959167d23c ?
                   OPENMOLCASO
                       OPE                tag:

 OpenMolcas is free software; you can redistribute it and/or modify it
 under the terms of the GNU Lesser General Public License version 2.1.
 OpenMolcas is distributed in the hope that it will be useful, but it
 is provided "as is" and without any express or implied warranties.
 For more details see the full text of the license in the file
 LICENSE or in <http://www.gnu.org/licenses/>.

                 Copyright (C) The OpenMolcas Authors
           For the author list and the recommended citation,
                   consult the file CONTRIBUTORS.md

           *************************************************
           * pymolcas version py2.28                       *
           *   build c4a6d18ded8cb6cad61d2372a9abd97c      *
           *   (after the EMIL interpreter by V. Veryazov) *
           *************************************************

configuration info
------------------
Host name: mgt (Linux)
C Compiler ID: GNU
C flags: -std=gnu99
Fortran Compiler ID: GNU
Fortran flags: -fno-aggressive-loop-optimizations -cpp -fdefault-integer-8 -fmax-stack-var-size=1048576
Definitions: _MOLCAS_;_I8_;_LINUX_
Parallel: OFF (GA=OFF)


   -------------------------------------------------------------------------------------------------------
  |
  |           Project: n2
  |    Submitted from: /public/home/xzzeng/work/HQC/N2/cc-pvtz/NO/PES/entropy/2.4/results/work_dir/n2/dmrg
  |      Scratch area: /public/home/xzzeng/work/HQC/N2/cc-pvtz/NO/PES/entropy/2.4/results/scratch
  |   Save outputs to: /public/home/xzzeng/work/HQC/N2/cc-pvtz/NO/PES/entropy/2.4/results/work_dir/n2/dmrg
  |            Molcas: /public/home/xzzeng/soft/OpenMolcas/build
  |
  | Scratch area is NOT empty
  |
  |    MOLCAS_DRIVER = /public/home/xzzeng/soft/OpenMolcas/build/pymolcas
  |    MOLCAS_NPROCS = 1
  |    MOLCAS_SOURCE = /public/home/xzzeng/soft/OpenMolcas
  | MOLCAS_STRUCTURE = 0
  |
   -------------------------------------------------------------------------------------------------------

++ ---------   Input file   ---------

&DMRGSCF
ActiveSpaceOptimizer = QCMaquis
DMRGSettings
  nsweeps = 5
  max_bond_dimension = 300
EndDMRGSettings
OOptimizationSettings
  SPIN    = 1
  NACTEL  = 10
  FILEORB = /public/home/xzzeng/work/HQC/N2/cc-pvtz/NO/PES/entropy/2.4/results/work_dir/n2/dmrg/n2.scf.h5_sel
  TYPEINDEX
  CIONLY
EndOOptimizationSettings

-- ----------------------------------

*** symbolic link created: INPORB -> n2.ScfOrb
--- Start Module: dmrgscf at Tue Apr  9 00:42:48 2024 ---

()()()()()()()()()()()()()()()()()()()()()()()()()()()()()()()()()()()()()()()()()()()()()()()()()()

                                              &DMRGSCF

                                   only a single process is used
                       available to each process: 12 GB of memory, 1 thread?
                                             pid: 62176
()()()()()()()()()()()()()()()()()()()()()()()()()()()()()()()()()()()()()()()()()()()()()()()()()()


      DMRGSCF: active space solver is set to qcmaquis
      -------                                --------


      Header of the ONEINT file:
      --------------------------
      
      Integrals generated by Gateway/Seward, Tue Apr  9 00:42:44 2024


      OrdInt status: non-squared


      Cartesian coordinates in Angstrom:
      -----------------------------------------------------
      No.  Label        X            Y            Z        
      -----------------------------------------------------
       1   N1         0.00000000   0.00000000   0.00000000
       2   N2         0.00000000   0.00000000   2.40000000
      -----------------------------------------------------
      Nuclear repulsion energy =   10.80403472

++    Wave function specifications:
      -----------------------------

      Number of closed shell electrons           4
      Number of electrons in active shells      10
      Max number of holes in RAS1 space          0
      Max nr of electrons in RAS3 space          0
      Number of inactive orbitals                2
      Number of active orbitals                  8
      Number of secondary orbitals              50
      Spin quantum number                      0.0
      State symmetry                             1
--

++    Orbital specifications:
      -----------------------

      Symmetry species                           1
                                                 a
      Frozen orbitals                            0
      Inactive orbitals                          2
      Active orbitals                            8
      RAS1 orbitals                              0
      RAS2 orbitals                              8
      RAS3 orbitals                              0
      Secondary orbitals                        50
      Deleted orbitals                           0
      Number of basis functions                 60
--

++    DMRG specifications:
      ----------------------------

      Number of renormalized states              300
      (Max) number of sweeps                     5
      Convergence threshold (sweep tolerance)    0.100E-07
      Jacobi-Davidson threshold                  0.100E-10
      SVD truncation threshold (initial)         1e-50
      SVD truncation threshold (final)           0.100E-10
      Number of root(s) required                 1
      Root chosen for geometry opt.              1
      DMRG root used                             1
         
--

++    Optimization specifications:
      ----------------------------

      RASSCF algorithm: LK Cholesky
      Maximum number of macro iterations       200
      Maximum number of SX iterations          100
      Threshold for RASSCF energy            1.000E-08
      Threshold for max MO rotation          1.000E-01
      Threshold for max BLB element          1.000E-04
      Level shift parameter                  5.000E-01
      Make Quasi-Newton update
--

      The MO-coefficients are taken from the file:
      /public/home/xzzeng/work/HQC/N2/cc-pvtz/NO/PES/entropy/2.4/results/work_dir/n2/dmrg/n2.scf.h5_sel                                                                                                                                                               

      Total molecular charge    0.00

      ************************************************************************************************************************
      *                                                                                                                      *
      *                                            Wave function control section                                             *
      *                                                                                                                      *
      ************************************************************************************************************************


                                         DMRGCI only, no orbital optimization will be done.
                                         --------------------------------------------------

                                             Please cite for the QCMaquis-Molcas driver:

                                    Freitag L.; Keller S.; Knecht S.; Lindh R.; Ma Y.; 
                                    Stein C. J. and Reiher M., in preparation. (2018).
                                    ---------------------------------------------------------------

                                             Please cite for the QCMaquis DMRG software:

                                    S. Keller, M. Dolfi, M. Troyer, M. Reiher,
                                    J. Chem. Phys. 143, 244118 (2015)
                                    ---------------------------------------------------------------



      DMRGCI energy              :    -108.7464532192
      Total time spent (hh:mm:ss):            0:00:03


      Natural orbitals and occupation numbers for root  1
      sym 1:   1.999575   1.998409   1.367973   1.116415   1.116415   0.883892   0.883892   0.633430

      ************************************************************************************************************************
      *                                                                                                                      *
      *                                                    Final results                                                     *
      *                                                                                                                      *
      ************************************************************************************************************************


++    Wave function specifications:
      -----------------------------

      Number of closed shell electrons           4
      Number of electrons in active shells      10
      Max number of holes in RAS1 space          0
      Max nr of electrons in RAS3 space          0
      Number of inactive orbitals                2
      Number of active orbitals                  8
      Number of secondary orbitals              50
      Spin quantum number                      0.0
      State symmetry                             1
--

++    Orbital specifications:
      -----------------------

      Symmetry species                           1
                                                 a
      Frozen orbitals                            0
      Inactive orbitals                          2
      Active orbitals                            8
      RAS1 orbitals                              0
      RAS2 orbitals                              8
      RAS3 orbitals                              0
      Secondary orbitals                        50
      Deleted orbitals                           0
      Number of basis functions                 60
--

++    DMRG specifications:
      ----------------------------

      Number of renormalized states              300
      (Max) number of sweeps                     5
      Convergence threshold (sweep tolerance)    0.100E-07
      Jacobi-Davidson threshold                  0.100E-10
      SVD truncation threshold (initial)         1e-50
      SVD truncation threshold (final)           0.100E-10
      Number of root(s) required                 1
      DMRG root used                             1
      highest root included in the DMRG          1
      Root passed to geometry opt.               1
--

++    Final optimization conditions:
      ------------------------------

      Average CI energy                            -108.74645322
--


      Final state energy(ies):
      ------------------------

::    RASSCF root number  1 Total energy:   -108.74645322

++    Molecular orbitals:
      -------------------

      Pseudonatural active orbitals and approximate occupation numbers




      Molecular orbitals for symmetry species 1: a  


      Orbital                 1         2         3         4         5         6         7         8         9        10
      Energy             0.0000    0.0000    0.0000    0.0000    0.0000    0.0000    0.0000    0.0000    0.0000    0.0000
      Occ. No.           0.0000    0.0000    0.0000    0.0000    0.0000    0.0000    0.0000    0.0000    0.0000    0.0000

     1 N1     1s         0.6791   -0.7351   -0.0006   -0.0032    0.0073   -0.0000    0.0000   -0.0000   -0.0000    0.0054
     2 N1     2s         0.0003    0.0004    0.7100   -0.7480    0.1059    0.0000   -0.0000    0.0000   -0.0000    0.1485
     3 N1     *s        -0.0011    0.0010    0.0086   -0.0096    0.0027    0.0000   -0.0000    0.0000   -0.0000    0.0013
     4 N1     *s        -0.0002   -0.0007   -0.0308    0.0430   -0.0218    0.0000   -0.0000   -0.0000    0.0000    0.0086
     5 N1     2px       -0.0000    0.0000    0.0000   -0.0000    0.0000   -0.0079    0.6380    0.0033    0.6699    0.0000
     6 N1     *px       -0.0000   -0.0000   -0.0000    0.0000    0.0000    0.0002   -0.0188   -0.0001   -0.0205   -0.0000
     7 N1     *px        0.0000   -0.0000    0.0000   -0.0000    0.0000   -0.0011    0.0875    0.0005    0.0972    0.0000
     8 N1     2py       -0.0000   -0.0000    0.0000    0.0000    0.0000    0.6380    0.0079   -0.6699    0.0033    0.0000
     9 N1     *py       -0.0000    0.0000    0.0000   -0.0000    0.0000   -0.0188   -0.0002    0.0205   -0.0001    0.0000
    10 N1     *py        0.0000    0.0000   -0.0000    0.0000    0.0000    0.0875    0.0011   -0.0972    0.0005    0.0000
    11 N1     2pz        0.0016   -0.0017    0.0120    0.0610   -0.6182    0.0000   -0.0000    0.0000    0.0000    0.7072
    12 N1     *pz       -0.0012    0.0013    0.0012    0.0004    0.0078    0.0000    0.0000   -0.0000   -0.0000   -0.0290
    13 N1     *pz       -0.0004   -0.0001    0.0056   -0.0024   -0.0575    0.0000   -0.0000   -0.0000    0.0000    0.1463
    14 N1     *d2-       0.0000   -0.0000    0.0000   -0.0000    0.0000    0.0000   -0.0000   -0.0000    0.0000    0.0000
    15 N1     *d2-      -0.0000    0.0000    0.0000    0.0000    0.0000   -0.0000    0.0000   -0.0000   -0.0000   -0.0000
    16 N1     *d1-      -0.0000    0.0000   -0.0000    0.0000   -0.0000    0.0011    0.0000   -0.0002    0.0000    0.0000
    17 N1     *d1-      -0.0000   -0.0000    0.0000   -0.0000   -0.0000    0.0125    0.0002    0.0096   -0.0000    0.0000
    18 N1     *d0       -0.0000    0.0001    0.0001    0.0006   -0.0022    0.0000    0.0000    0.0000    0.0000   -0.0016
    19 N1     *d0        0.0000   -0.0002    0.0041    0.0023   -0.0155   -0.0000    0.0000    0.0000    0.0000   -0.0106
    20 N1     *d1+      -0.0000    0.0000   -0.0000    0.0000   -0.0000   -0.0000    0.0011    0.0000    0.0002    0.0000
    21 N1     *d1+       0.0000    0.0000   -0.0000    0.0000   -0.0000   -0.0002    0.0125   -0.0000   -0.0096    0.0000
    22 N1     *d2+      -0.0000    0.0000   -0.0000    0.0000    0.0000    0.0000   -0.0000    0.0000    0.0000    0.0000
    23 N1     *d2+      -0.0000    0.0000   -0.0000    0.0000    0.0000   -0.0000   -0.0000    0.0000    0.0000   -0.0000
    24 N1     *f3-      -0.0000   -0.0000   -0.0000    0.0000   -0.0000    0.0000    0.0000   -0.0000    0.0000    0.0000
    25 N1     *f2-       0.0000    0.0000   -0.0000   -0.0000    0.0000    0.0000   -0.0000   -0.0000    0.0000    0.0000
    26 N1     *f1-       0.0000    0.0000    0.0000    0.0000   -0.0000    0.0009    0.0000    0.0008   -0.0000    0.0000
    27 N1     *f0        0.0000   -0.0000    0.0007    0.0002   -0.0015    0.0000    0.0000    0.0000   -0.0000   -0.0014
    28 N1     *f1+      -0.0000    0.0000    0.0000    0.0000   -0.0000   -0.0000    0.0009   -0.0000   -0.0008    0.0000
    29 N1     *f2+      -0.0000    0.0000    0.0000    0.0000   -0.0000   -0.0000    0.0000   -0.0000    0.0000    0.0000
    30 N1     *f3+       0.0000    0.0000   -0.0000   -0.0000    0.0000    0.0000   -0.0000   -0.0000   -0.0000    0.0000
    31 N2     1s         0.7353    0.6789   -0.0006    0.0032    0.0073    0.0000   -0.0000    0.0000   -0.0000   -0.0054
    32 N2     2s         0.0003   -0.0004    0.7100    0.7480    0.1059   -0.0000    0.0000    0.0000   -0.0000   -0.1486
    33 N2     *s        -0.0012   -0.0009    0.0086    0.0096    0.0027   -0.0000    0.0000   -0.0000   -0.0000   -0.0013
    34 N2     *s        -0.0002    0.0007   -0.0308   -0.0430   -0.0218   -0.0000    0.0000   -0.0000    0.0000   -0.0086
    35 N2     2px       -0.0000    0.0000    0.0000   -0.0000   -0.0000   -0.0079    0.6380   -0.0033   -0.6699    0.0000
    36 N2     *px       -0.0000   -0.0000   -0.0000   -0.0000    0.0000    0.0002   -0.0188    0.0001    0.0205   -0.0000
    37 N2     *px        0.0000   -0.0000    0.0000   -0.0000   -0.0000   -0.0011    0.0875   -0.0005   -0.0972    0.0000
    38 N2     2py        0.0000    0.0000   -0.0000   -0.0000   -0.0000    0.6380    0.0079    0.6699   -0.0033    0.0000
    39 N2     *py       -0.0000   -0.0000    0.0000    0.0000   -0.0000   -0.0188   -0.0002   -0.0205    0.0001   -0.0000
    40 N2     *py       -0.0000   -0.0000    0.0000   -0.0000    0.0000    0.0875    0.0011    0.0972   -0.0005    0.0000
    41 N2     2pz       -0.0017   -0.0015   -0.0120    0.0611    0.6182    0.0000   -0.0000   -0.0000   -0.0000    0.7071
    42 N2     *pz        0.0013    0.0012   -0.0012    0.0004   -0.0078    0.0000    0.0000    0.0000    0.0000   -0.0290
    43 N2     *pz        0.0004   -0.0001   -0.0056   -0.0024    0.0575    0.0000   -0.0000    0.0000   -0.0000    0.1463
    44 N2     *d2-       0.0000    0.0000   -0.0000    0.0000   -0.0000   -0.0000    0.0000   -0.0000   -0.0000    0.0000
    45 N2     *d2-       0.0000   -0.0000    0.0000   -0.0000    0.0000   -0.0000    0.0000    0.0000    0.0000   -0.0000
    46 N2     *d1-       0.0000    0.0000    0.0000    0.0000    0.0000   -0.0011   -0.0000   -0.0002    0.0000   -0.0000
    47 N2     *d1-      -0.0000   -0.0000    0.0000    0.0000   -0.0000   -0.0125   -0.0002    0.0096   -0.0000   -0.0000
    48 N2     *d0       -0.0000   -0.0001    0.0001   -0.0006   -0.0022   -0.0000   -0.0000   -0.0000    0.0000    0.0016
    49 N2     *d0        0.0001    0.0002    0.0041   -0.0023   -0.0155    0.0000   -0.0000    0.0000    0.0000    0.0106
    50 N2     *d1+      -0.0000    0.0000   -0.0000   -0.0000   -0.0000    0.0000   -0.0011    0.0000    0.0002   -0.0000
    51 N2     *d1+      -0.0000   -0.0000   -0.0000   -0.0000   -0.0000    0.0002   -0.0125   -0.0000   -0.0096   -0.0000
    52 N2     *d2+       0.0000    0.0000    0.0000    0.0000   -0.0000    0.0000    0.0000   -0.0000    0.0000    0.0000
    53 N2     *d2+       0.0000    0.0000    0.0000    0.0000   -0.0000   -0.0000   -0.0000    0.0000   -0.0000   -0.0000
    54 N2     *f3-      -0.0000   -0.0000   -0.0000    0.0000   -0.0000    0.0000    0.0000   -0.0000    0.0000    0.0000
    55 N2     *f2-       0.0000   -0.0000    0.0000   -0.0000    0.0000    0.0000   -0.0000    0.0000   -0.0000   -0.0000
    56 N2     *f1-      -0.0000    0.0000    0.0000   -0.0000    0.0000    0.0009    0.0000   -0.0008    0.0000    0.0000
    57 N2     *f0       -0.0000   -0.0000   -0.0007    0.0002    0.0015    0.0000    0.0000    0.0000    0.0000   -0.0014
    58 N2     *f1+       0.0000    0.0000    0.0000   -0.0000    0.0000   -0.0000    0.0009    0.0000    0.0008    0.0000
    59 N2     *f2+      -0.0000   -0.0000    0.0000   -0.0000   -0.0000   -0.0000    0.0000   -0.0000   -0.0000   -0.0000
    60 N2     *f3+      -0.0000   -0.0000    0.0000   -0.0000   -0.0000    0.0000   -0.0000   -0.0000   -0.0000    0.0000


      Orbital                11        12        13        14        15        16        17        18        19        20
      Energy             0.0000    0.0000    0.0000    0.0000    0.0000    0.0000    0.0000    0.0000    0.0000    0.0000
      Occ. No.           0.0000    0.0000    0.0000    0.0000    0.0000    0.0000    0.0000    0.0000    0.0000    0.0000

     1 N1     1s        -0.0000    0.0000    0.1392   -0.3233   -0.0000   -0.0000    0.0849   -0.3328    0.0398   -0.0000
     2 N1     2s        -0.0000    0.0000    0.7516   -1.5960   -0.0000   -0.0000    0.4880   -1.5414    0.1110   -0.0000
     3 N1     *s         0.0000   -0.0000   -0.0362    0.0870    0.0000    0.0000   -0.0171    0.0638   -0.0307    0.0000
     4 N1     *s         0.0000   -0.0000   -0.6327    1.7056    0.0000    0.0000   -0.3809    1.9768   -0.1435    0.0000
     5 N1     2px        0.0002    0.5189   -0.0000    0.0000   -0.0004    0.4862    0.0000    0.0000   -0.0000   -0.0342
     6 N1     *px        0.0001    0.3222   -0.0000    0.0000   -0.0003    0.3604    0.0000   -0.0000   -0.0000   -0.0364
     7 N1     *px       -0.0003   -0.9383    0.0000   -0.0000    0.0008   -1.1106   -0.0000    0.0000    0.0000    0.1311
     8 N1     2py       -0.5189    0.0002   -0.0000   -0.0000    0.4862    0.0004    0.0000   -0.0000    0.0000    0.0002
     9 N1     *py       -0.3222    0.0001   -0.0000   -0.0000    0.3604    0.0003    0.0000   -0.0000   -0.0000    0.0002
    10 N1     *py        0.9383   -0.0003    0.0000    0.0000   -1.1106   -0.0008   -0.0000    0.0000    0.0000   -0.0008
    11 N1     2pz        0.0000   -0.0000   -0.3785    0.0908   -0.0000   -0.0000    0.5458   -0.1813   -0.2208   -0.0000
    12 N1     *pz        0.0000   -0.0000   -0.3417    0.1371   -0.0000   -0.0000    0.3139   -0.2216    0.0792    0.0000
    13 N1     *pz       -0.0000    0.0000    1.1029   -0.3490    0.0000    0.0000   -0.8895    0.9164    0.0844    0.0000
    14 N1     *d2-      -0.0000    0.0000    0.0000   -0.0000   -0.0000    0.0000    0.0000   -0.0000    0.0000    0.0000
    15 N1     *d2-      -0.0000   -0.0000   -0.0000    0.0000    0.0000    0.0000   -0.0000    0.0000   -0.0000   -0.0000
    16 N1     *d1-      -0.0002    0.0000   -0.0000    0.0000   -0.0003   -0.0000    0.0000   -0.0000    0.0000   -0.0001
    17 N1     *d1-       0.0327   -0.0000    0.0000    0.0000    0.0561    0.0000    0.0000   -0.0000   -0.0000    0.0043
    18 N1     *d0        0.0000   -0.0000   -0.0112    0.0010    0.0000    0.0000   -0.0134   -0.0022   -0.0129    0.0000
    19 N1     *d0       -0.0000    0.0000    0.0357    0.0254   -0.0000   -0.0000    0.1042   -0.2111    0.6621   -0.0000
    20 N1     *d1+       0.0000    0.0002    0.0000   -0.0000    0.0000   -0.0003    0.0000   -0.0000   -0.0000    0.0202
    21 N1     *d1+      -0.0000   -0.0327    0.0000    0.0000   -0.0000    0.0561    0.0000    0.0000    0.0000   -0.6954
    22 N1     *d2+      -0.0000    0.0000    0.0000   -0.0000   -0.0000   -0.0000    0.0000   -0.0000    0.0000    0.0000
    23 N1     *d2+       0.0000    0.0000   -0.0000    0.0000    0.0000    0.0000   -0.0000    0.0000   -0.0000   -0.0000
    24 N1     *f3-       0.0000   -0.0000    0.0000    0.0000    0.0000    0.0000   -0.0000   -0.0000   -0.0000   -0.0000
    25 N1     *f2-      -0.0000   -0.0000   -0.0000    0.0000    0.0000    0.0000    0.0000   -0.0000   -0.0000   -0.0000
    26 N1     *f1-       0.0010   -0.0000   -0.0000    0.0000    0.0007    0.0000    0.0000   -0.0000    0.0000    0.0001
    27 N1     *f0       -0.0000    0.0000    0.0042    0.0010   -0.0000   -0.0000    0.0074    0.0039    0.0116    0.0000
    28 N1     *f1+      -0.0000   -0.0010   -0.0000    0.0000   -0.0000    0.0007    0.0000   -0.0000   -0.0000   -0.0093
    29 N1     *f2+       0.0000    0.0000   -0.0000    0.0000    0.0000    0.0000    0.0000   -0.0000   -0.0000   -0.0000
    30 N1     *f3+       0.0000    0.0000   -0.0000   -0.0000    0.0000   -0.0000    0.0000   -0.0000    0.0000   -0.0000
    31 N2     1s         0.0000   -0.0000   -0.1393   -0.3233    0.0000   -0.0000    0.0849    0.3328    0.0398    0.0000
    32 N2     2s         0.0000   -0.0000   -0.7520   -1.5960    0.0000   -0.0000    0.4880    1.5413    0.1109    0.0000
    33 N2     *s        -0.0000    0.0000    0.0363    0.0870    0.0000   -0.0000   -0.0171   -0.0638   -0.0307   -0.0000
    34 N2     *s        -0.0000    0.0000    0.6332    1.7057   -0.0000    0.0000   -0.3809   -1.9767   -0.1434   -0.0000
    35 N2     2px        0.0002    0.5189   -0.0000   -0.0000    0.0004   -0.4862   -0.0000   -0.0000    0.0000   -0.0342
    36 N2     *px        0.0001    0.3222   -0.0000   -0.0000    0.0003   -0.3604   -0.0000   -0.0000    0.0000   -0.0364
    37 N2     *px       -0.0003   -0.9383    0.0000    0.0000   -0.0008    1.1106    0.0000    0.0000   -0.0000    0.1311
    38 N2     2py       -0.5189    0.0002   -0.0000   -0.0000   -0.4862   -0.0004   -0.0000   -0.0000   -0.0000    0.0002
    39 N2     *py       -0.3222    0.0001   -0.0000   -0.0000   -0.3604   -0.0003   -0.0000    0.0000    0.0000    0.0002
    40 N2     *py        0.9383   -0.0003    0.0000    0.0000    1.1106    0.0008    0.0000   -0.0000    0.0000   -0.0008
    41 N2     2pz        0.0000   -0.0000   -0.3785   -0.0907    0.0000    0.0000   -0.5458   -0.1812    0.2209   -0.0000
    42 N2     *pz        0.0000   -0.0000   -0.3418   -0.1370   -0.0000    0.0000   -0.3139   -0.2216   -0.0791    0.0000
    43 N2     *pz       -0.0000    0.0000    1.1030    0.3486   -0.0000   -0.0000    0.8896    0.9164   -0.0844    0.0000
    44 N2     *d2-       0.0000   -0.0000    0.0000    0.0000    0.0000   -0.0000   -0.0000   -0.0000   -0.0000    0.0000
    45 N2     *d2-       0.0000   -0.0000   -0.0000   -0.0000    0.0000    0.0000    0.0000    0.0000    0.0000    0.0000
    46 N2     *d1-       0.0002   -0.0000    0.0000    0.0000   -0.0003   -0.0000    0.0000    0.0000   -0.0000    0.0001
    47 N2     *d1-      -0.0327    0.0000   -0.0000   -0.0000    0.0561    0.0000    0.0000   -0.0000    0.0000   -0.0043
    48 N2     *d0       -0.0000    0.0000    0.0112    0.0010   -0.0000    0.0000   -0.0134    0.0022   -0.0129   -0.0000
    49 N2     *d0        0.0000   -0.0000   -0.0357    0.0254   -0.0000   -0.0000    0.1042    0.2111    0.6620    0.0000
    50 N2     *d1+      -0.0000   -0.0002   -0.0000   -0.0000    0.0000   -0.0003    0.0000    0.0000   -0.0000   -0.0202
    51 N2     *d1+       0.0000    0.0327   -0.0000    0.0000   -0.0000    0.0561    0.0000   -0.0000   -0.0000    0.6954
    52 N2     *d2+       0.0000   -0.0000    0.0000    0.0000   -0.0000   -0.0000   -0.0000   -0.0000   -0.0000   -0.0000
    53 N2     *d2+      -0.0000   -0.0000   -0.0000   -0.0000    0.0000    0.0000    0.0000    0.0000    0.0000    0.0000
    54 N2     *f3-       0.0000   -0.0000    0.0000    0.0000   -0.0000   -0.0000   -0.0000   -0.0000   -0.0000    0.0000
    55 N2     *f2-      -0.0000    0.0000    0.0000    0.0000   -0.0000    0.0000    0.0000    0.0000   -0.0000   -0.0000
    56 N2     *f1-       0.0010   -0.0000   -0.0000    0.0000   -0.0007   -0.0000   -0.0000   -0.0000   -0.0000    0.0001
    57 N2     *f0       -0.0000    0.0000    0.0042   -0.0010    0.0000    0.0000   -0.0074    0.0039   -0.0116    0.0000
    58 N2     *f1+      -0.0000   -0.0010   -0.0000   -0.0000    0.0000   -0.0007   -0.0000   -0.0000    0.0000   -0.0093
    59 N2     *f2+      -0.0000    0.0000    0.0000    0.0000    0.0000   -0.0000    0.0000    0.0000   -0.0000    0.0000
    60 N2     *f3+       0.0000    0.0000    0.0000   -0.0000   -0.0000    0.0000    0.0000   -0.0000   -0.0000    0.0000


      Orbital                21        22        23        24        25        26        27        28        29        30
      Energy             0.0000    0.0000    0.0000    0.0000    0.0000    0.0000    0.0000    0.0000    0.0000    0.0000
      Occ. No.           0.0000    0.0000    0.0000    0.0000    0.0000    0.0000    0.0000    0.0000    0.0000    0.0000

     1 N1     1s        -0.0000    0.0000    0.0000   -0.0000   -0.0000    0.0000    0.0000    0.1812   -0.0000    0.0000
     2 N1     2s        -0.0000    0.0000    0.0000   -0.0000   -0.0000    0.0000    0.0000    0.8785   -0.0000    0.0000
     3 N1     *s         0.0000   -0.0000   -0.0000    0.0000    0.0000   -0.0000   -0.0000    0.0327    0.0000    0.0000
     4 N1     *s         0.0000   -0.0000   -0.0000    0.0000    0.0000   -0.0000   -0.0000   -1.3691   -0.0000   -0.0000
     5 N1     2px       -0.0002   -0.0000    0.0000    0.0000    0.0000   -0.0822   -0.0001   -0.0000    0.0003   -2.4148
     6 N1     *px       -0.0002   -0.0000   -0.0000    0.0000   -0.0000   -0.0390   -0.0000   -0.0000   -0.0002    2.2317
     7 N1     *px        0.0008    0.0000    0.0000   -0.0000    0.0000    0.2238    0.0003    0.0000   -0.0000    0.4176
     8 N1     2py       -0.0342   -0.0000   -0.0000   -0.0000    0.0000   -0.0001    0.0822   -0.0000   -2.4148   -0.0003
     9 N1     *py       -0.0364    0.0000   -0.0000    0.0000    0.0000   -0.0000    0.0390    0.0000    2.2317    0.0002
    10 N1     *py        0.1311    0.0000    0.0000   -0.0000   -0.0000    0.0003   -0.2238    0.0000    0.4176    0.0000
    11 N1     2pz        0.0000    0.0000    0.0000    0.0000    0.0000    0.0000    0.0000    0.0252   -0.0000   -0.0000
    12 N1     *pz       -0.0000    0.0000    0.0000   -0.0000   -0.0000   -0.0000   -0.0000    0.2486    0.0000    0.0000
    13 N1     *pz        0.0000   -0.0000   -0.0000   -0.0000   -0.0000    0.0000   -0.0000   -0.9107    0.0000    0.0000
    14 N1     *d2-       0.0000   -0.0000   -0.0142    0.0000    0.0107    0.0000    0.0000    0.0000   -0.0000   -0.0000
    15 N1     *d2-      -0.0000    0.0000    0.7115   -0.0000   -0.7155   -0.0000    0.0000   -0.0000    0.0000    0.0000
    16 N1     *d1-       0.0202   -0.0000   -0.0000    0.0000    0.0000    0.0000   -0.0007   -0.0000    0.0010    0.0000
    17 N1     *d1-      -0.6954    0.0000    0.0000   -0.0000    0.0000    0.0009   -0.7354    0.0000    0.0202    0.0000
    18 N1     *d0        0.0000    0.0000    0.0000   -0.0000    0.0000   -0.0000    0.0000   -0.0258   -0.0000    0.0000
    19 N1     *d0       -0.0000    0.0000   -0.0000   -0.0000   -0.0000    0.0000   -0.0000   -0.8147   -0.0000   -0.0000
    20 N1     *d1+       0.0001   -0.0000    0.0000    0.0000    0.0000    0.0007    0.0000    0.0000   -0.0000    0.0010
    21 N1     *d1+      -0.0043    0.0000    0.0000    0.0000    0.0000    0.7354    0.0009    0.0000   -0.0000    0.0202
    22 N1     *d2+      -0.0000   -0.0142    0.0000    0.0107   -0.0000   -0.0000   -0.0000    0.0000   -0.0000   -0.0000
    23 N1     *d2+       0.0000    0.7115   -0.0000   -0.7156    0.0000   -0.0000    0.0000   -0.0000    0.0000    0.0000
    24 N1     *f3-       0.0000   -0.0000    0.0000   -0.0000   -0.0000   -0.0000    0.0000   -0.0000    0.0000    0.0000
    25 N1     *f2-       0.0000    0.0000    0.0023    0.0000    0.0020   -0.0000    0.0000   -0.0000    0.0000   -0.0000
    26 N1     *f1-      -0.0093    0.0000   -0.0000   -0.0000    0.0000   -0.0000    0.0128   -0.0000   -0.0056   -0.0000
    27 N1     *f0        0.0000    0.0000    0.0000   -0.0000   -0.0000   -0.0000    0.0000    0.0369   -0.0000   -0.0000
    28 N1     *f1+      -0.0001   -0.0000   -0.0000    0.0000   -0.0000   -0.0128   -0.0000    0.0000    0.0000   -0.0056
    29 N1     *f2+      -0.0000    0.0023   -0.0000    0.0020   -0.0000   -0.0000   -0.0000   -0.0000   -0.0000    0.0000
    30 N1     *f3+      -0.0000    0.0000    0.0000   -0.0000    0.0000    0.0000    0.0000   -0.0000    0.0000   -0.0000
    31 N2     1s        -0.0000   -0.0000   -0.0000   -0.0000   -0.0000    0.0000   -0.0000   -0.1812   -0.0000    0.0000
    32 N2     2s        -0.0000   -0.0000   -0.0000   -0.0000   -0.0000    0.0000   -0.0000   -0.8785   -0.0000   -0.0000
    33 N2     *s        -0.0000    0.0000    0.0000    0.0000    0.0000   -0.0000    0.0000   -0.0326    0.0000   -0.0000
    34 N2     *s         0.0000    0.0000    0.0000    0.0000    0.0000   -0.0000    0.0000    1.3691    0.0000    0.0000
    35 N2     2px       -0.0002    0.0000    0.0000    0.0000    0.0000    0.0822    0.0001   -0.0000    0.0003   -2.4170
    36 N2     *px       -0.0002    0.0000    0.0000    0.0000    0.0000    0.0390    0.0000   -0.0000   -0.0003    2.2338
    37 N2     *px        0.0008   -0.0000   -0.0000   -0.0000   -0.0000   -0.2238   -0.0003    0.0000   -0.0000    0.4178
    38 N2     2py       -0.0342    0.0000    0.0000   -0.0000    0.0000    0.0001   -0.0822   -0.0000   -2.4170   -0.0003
    39 N2     *py       -0.0364   -0.0000    0.0000   -0.0000    0.0000    0.0000   -0.0390    0.0000    2.2338    0.0003
    40 N2     *py        0.1311   -0.0000   -0.0000    0.0000   -0.0000   -0.0003    0.2238    0.0000    0.4178    0.0000
    41 N2     2pz        0.0000    0.0000    0.0000   -0.0000   -0.0000   -0.0000   -0.0000    0.0252   -0.0000   -0.0000
    42 N2     *pz       -0.0000    0.0000    0.0000    0.0000    0.0000    0.0000    0.0000    0.2486    0.0000    0.0000
    43 N2     *pz       -0.0000   -0.0000   -0.0000    0.0000    0.0000   -0.0000   -0.0000   -0.9107    0.0000    0.0000
    44 N2     *d2-      -0.0000   -0.0000   -0.0142   -0.0000   -0.0107   -0.0000    0.0000    0.0000    0.0000    0.0000
    45 N2     *d2-       0.0000    0.0000    0.7115    0.0000    0.7155   -0.0000    0.0000   -0.0000   -0.0000    0.0000
    46 N2     *d1-      -0.0202   -0.0000   -0.0000   -0.0000   -0.0000    0.0000   -0.0007   -0.0000   -0.0010   -0.0000
    47 N2     *d1-       0.6954   -0.0000    0.0000    0.0000   -0.0000    0.0009   -0.7354    0.0000   -0.0202   -0.0000
    48 N2     *d0       -0.0000   -0.0000   -0.0000   -0.0000    0.0000   -0.0000   -0.0000    0.0258   -0.0000   -0.0000
    49 N2     *d0       -0.0000   -0.0000   -0.0000   -0.0000   -0.0000   -0.0000    0.0000    0.8147    0.0000    0.0000
    50 N2     *d1+      -0.0001   -0.0000   -0.0000   -0.0000    0.0000    0.0007    0.0000   -0.0000    0.0000   -0.0010
    51 N2     *d1+       0.0043    0.0000    0.0000   -0.0000   -0.0000    0.7354    0.0009   -0.0000    0.0000   -0.0202
    52 N2     *d2+       0.0000   -0.0142    0.0000   -0.0107    0.0000   -0.0000   -0.0000    0.0000   -0.0000    0.0000
    53 N2     *d2+      -0.0000    0.7115   -0.0000    0.7155   -0.0000   -0.0000   -0.0000   -0.0000    0.0000   -0.0000
    54 N2     *f3-      -0.0000   -0.0000   -0.0000   -0.0000    0.0000   -0.0000    0.0000    0.0000    0.0000    0.0000
    55 N2     *f2-       0.0000   -0.0000   -0.0023    0.0000    0.0020    0.0000   -0.0000    0.0000    0.0000   -0.0000
    56 N2     *f1-      -0.0093   -0.0000    0.0000   -0.0000    0.0000    0.0000   -0.0128   -0.0000   -0.0056   -0.0000
    57 N2     *f0        0.0000    0.0000    0.0000    0.0000    0.0000    0.0000   -0.0000    0.0369    0.0000   -0.0000
    58 N2     *f1+      -0.0001    0.0000    0.0000    0.0000    0.0000    0.0128    0.0000    0.0000    0.0000   -0.0056
    59 N2     *f2+      -0.0000   -0.0023    0.0000    0.0020   -0.0000    0.0000    0.0000    0.0000   -0.0000    0.0000
    60 N2     *f3+       0.0000   -0.0000   -0.0000    0.0000    0.0000    0.0000    0.0000    0.0000    0.0000   -0.0000


      Orbital                31        32        33        34        35        36        37        38        39        40
      Energy             0.0000    0.0000    0.0000    0.0000    0.0000    0.0000    0.0000    0.0000    0.0000    0.0000
      Occ. No.           0.0000    0.0000    0.0000    0.0000    0.0000    0.0000    0.0000    0.0000    0.0000    0.0000

     1 N1     1s         0.0000    0.0000   -0.0091    0.0264   -0.0394    0.0000    0.0000    0.0000    0.0000    0.0000
     2 N1     2s        -0.0000    0.0000    0.0564    0.0327   -0.0871    0.0000   -0.0000    0.0000    0.0000    0.0000
     3 N1     *s        -0.0000   -0.0000    0.0702   -0.0429    0.0529   -0.0000    0.0000   -0.0000   -0.0000   -0.0000
     4 N1     *s         0.0000    0.0000   -0.2596   -0.0712    0.0680    0.0000    0.0000    0.0000    0.0000    0.0000
     5 N1     2px        2.4250    0.0002    0.0000   -0.0000    0.0000   -0.0326    0.0002   -0.0000   -0.0000   -0.0000
     6 N1     *px       -2.2742   -0.0002   -0.0000    0.0000   -0.0000    0.0395   -0.0003    0.0000    0.0000    0.0000
     7 N1     *px       -0.3183   -0.0000   -0.0000    0.0000   -0.0000   -0.0127    0.0001   -0.0000   -0.0000    0.0000
     8 N1     2py       -0.0002    2.4250    0.0000   -0.0000   -0.0000   -0.0002   -0.0326   -0.0000    0.0000    0.0000
     9 N1     *py        0.0002   -2.2742   -0.0000    0.0000    0.0000    0.0003    0.0395    0.0000   -0.0000   -0.0000
    10 N1     *py        0.0000   -0.3183   -0.0000    0.0000    0.0000   -0.0001   -0.0127   -0.0000    0.0000   -0.0000
    11 N1     2pz        0.0000    0.0000   -2.4241    2.4197   -0.2060    0.0000   -0.0000   -0.0000   -0.0000   -0.0000
    12 N1     *pz       -0.0000   -0.0000    2.2739   -2.3114    0.2060   -0.0000    0.0000    0.0000    0.0000    0.0000
    13 N1     *pz       -0.0000   -0.0000    0.1813   -0.3496    0.0300    0.0000    0.0000    0.0000    0.0000   -0.0000
    14 N1     *d2-      -0.0000    0.0000    0.0000   -0.0000    0.0000    0.0000    0.0000    0.0045   -0.0000    0.0000
    15 N1     *d2-       0.0000   -0.0000    0.0000    0.0000   -0.0000   -0.0000   -0.0000    0.0018   -0.0000   -0.0000
    16 N1     *d1-      -0.0000    0.0172    0.0000   -0.0000   -0.0000   -0.0004   -0.0596   -0.0000    0.0000   -0.0000
    17 N1     *d1-      -0.0000    0.0300   -0.0000    0.0000    0.0000    0.0001    0.0087    0.0000    0.0000    0.0000
    18 N1     *d0        0.0000    0.0000    0.0056    0.0634    0.0837    0.0000    0.0000    0.0000    0.0000   -0.0000
    19 N1     *d0        0.0000    0.0000   -0.0521    0.0156   -0.0070   -0.0000   -0.0000   -0.0000   -0.0000    0.0000
    20 N1     *d1+       0.0172    0.0000   -0.0000   -0.0000   -0.0000   -0.0596    0.0004   -0.0000   -0.0000    0.0000
    21 N1     *d1+       0.0300    0.0000   -0.0000   -0.0000    0.0000    0.0087   -0.0001    0.0000    0.0000   -0.0000
    22 N1     *d2+       0.0000    0.0000    0.0000   -0.0000    0.0000    0.0000   -0.0000    0.0000    0.0045    0.0000
    23 N1     *d2+      -0.0000    0.0000    0.0000    0.0000   -0.0000   -0.0000    0.0000    0.0000    0.0018   -0.0000
    24 N1     *f3-       0.0000   -0.0000    0.0000   -0.0000   -0.0000   -0.0000   -0.0000   -0.0000   -0.0000    0.7116
    25 N1     *f2-      -0.0000   -0.0000    0.0000   -0.0000    0.0000    0.0000    0.0000   -0.7064    0.0000    0.0000
    26 N1     *f1-       0.0000   -0.0127   -0.0000   -0.0000   -0.0000    0.0045    0.7042   -0.0000    0.0000    0.0000
    27 N1     *f0        0.0000    0.0000   -0.0159   -0.0493   -0.6978    0.0000    0.0000    0.0000    0.0000    0.0000
    28 N1     *f1+      -0.0127   -0.0000    0.0000   -0.0000   -0.0000    0.7042   -0.0045   -0.0000   -0.0000   -0.0000
    29 N1     *f2+      -0.0000    0.0000    0.0000   -0.0000    0.0000    0.0000   -0.0000   -0.0000   -0.7073    0.0000
    30 N1     *f3+       0.0000    0.0000    0.0000   -0.0000    0.0000    0.0000   -0.0000    0.0000   -0.0000    0.0041
    31 N2     1s         0.0000   -0.0000    0.0091    0.0264   -0.0394   -0.0000    0.0000   -0.0000   -0.0000    0.0000
    32 N2     2s         0.0000   -0.0000   -0.0564    0.0327   -0.0871   -0.0000    0.0000   -0.0000   -0.0000    0.0000
    33 N2     *s        -0.0000    0.0000   -0.0702   -0.0429    0.0529    0.0000   -0.0000    0.0000    0.0000   -0.0000
    34 N2     *s        -0.0000   -0.0000    0.2596   -0.0712    0.0680   -0.0000   -0.0000   -0.0000   -0.0000   -0.0000
    35 N2     2px       -2.4228   -0.0002    0.0000    0.0000   -0.0000   -0.0326    0.0002    0.0000    0.0000   -0.0000
    36 N2     *px        2.2722    0.0002   -0.0000   -0.0000    0.0000    0.0395   -0.0003   -0.0000   -0.0000    0.0000
    37 N2     *px        0.3179    0.0000   -0.0000   -0.0000    0.0000   -0.0128    0.0001    0.0000    0.0000    0.0000
    38 N2     2py        0.0002   -2.4228   -0.0000    0.0000    0.0000   -0.0002   -0.0326    0.0000   -0.0000    0.0000
    39 N2     *py       -0.0002    2.2722    0.0000   -0.0000   -0.0000    0.0003    0.0395   -0.0000    0.0000   -0.0000
    40 N2     *py       -0.0000    0.3179    0.0000   -0.0000   -0.0000   -0.0001   -0.0128    0.0000    0.0000   -0.0000
    41 N2     2pz       -0.0000    0.0000   -2.4243   -2.4196    0.2060    0.0000   -0.0000   -0.0000   -0.0000   -0.0000
    42 N2     *pz        0.0000   -0.0000    2.2740    2.3113   -0.2060   -0.0000    0.0000    0.0000    0.0000    0.0000
    43 N2     *pz        0.0000   -0.0000    0.1813    0.3496   -0.0300    0.0000    0.0000    0.0000    0.0000    0.0000
    44 N2     *d2-       0.0000    0.0000    0.0000    0.0000   -0.0000   -0.0000   -0.0000    0.0044   -0.0000   -0.0000
    45 N2     *d2-      -0.0000   -0.0000    0.0000   -0.0000    0.0000    0.0000    0.0000    0.0018   -0.0000    0.0000
    46 N2     *d1-      -0.0000    0.0172    0.0000    0.0000    0.0000    0.0004    0.0596   -0.0000    0.0000    0.0000
    47 N2     *d1-      -0.0000    0.0300    0.0000   -0.0000   -0.0000   -0.0001   -0.0087    0.0000   -0.0000   -0.0000
    48 N2     *d0        0.0000   -0.0000   -0.0056    0.0634    0.0837   -0.0000   -0.0000   -0.0000   -0.0000    0.0000
    49 N2     *d0       -0.0000   -0.0000    0.0521    0.0156   -0.0070    0.0000    0.0000    0.0000    0.0000   -0.0000
    50 N2     *d1+       0.0172    0.0000    0.0000   -0.0000   -0.0000    0.0596   -0.0004   -0.0000   -0.0000   -0.0000
    51 N2     *d1+       0.0300    0.0000    0.0000   -0.0000    0.0000   -0.0087    0.0001    0.0000    0.0000    0.0000
    52 N2     *d2+       0.0000   -0.0000    0.0000    0.0000   -0.0000   -0.0000    0.0000    0.0000    0.0045   -0.0000
    53 N2     *d2+      -0.0000    0.0000    0.0000   -0.0000    0.0000    0.0000    0.0000    0.0000    0.0018    0.0000
    54 N2     *f3-      -0.0000    0.0000   -0.0000    0.0000    0.0000    0.0000    0.0000    0.0000    0.0000    0.7026
    55 N2     *f2-       0.0000    0.0000   -0.0000   -0.0000    0.0000    0.0000    0.0000    0.7076   -0.0000    0.0000
    56 N2     *f1-      -0.0000    0.0127    0.0000    0.0000    0.0000    0.0045    0.7041    0.0000   -0.0000    0.0000
    57 N2     *f0        0.0000    0.0000   -0.0159    0.0493    0.6978    0.0000    0.0000    0.0000    0.0000   -0.0000
    58 N2     *f1+       0.0127    0.0000    0.0000    0.0000    0.0000    0.7041   -0.0045    0.0000    0.0000   -0.0000
    59 N2     *f2+       0.0000    0.0000   -0.0000   -0.0000    0.0000    0.0000   -0.0000    0.0000    0.7067    0.0000
    60 N2     *f3+      -0.0000   -0.0000    0.0000   -0.0000   -0.0000   -0.0000    0.0000   -0.0000    0.0000    0.0040


      Orbital                41        42        43        44        45        46        47        48        49        50
      Energy             0.0000    0.0000    0.0000    0.0000    0.0000    0.0000    0.0000    0.0000    0.0000    0.0000
      Occ. No.           0.0000    0.0000    0.0000    0.0000    0.0000    0.0000    0.0000    0.0000    0.0000    0.0000

     1 N1     1s        -0.0000    0.0000   -0.0000    0.0000    0.0000    0.0000    0.0000    0.0300   -0.0000    0.0000
     2 N1     2s        -0.0000    0.0000   -0.0000    0.0000    0.0000    0.0000    0.0000    0.0325   -0.0000    0.0000
     3 N1     *s         0.0000   -0.0000   -0.0000   -0.0000   -0.0000   -0.0000   -0.0000   -0.0628    0.0000   -0.0000
     4 N1     *s         0.0000    0.0000    0.0000   -0.0000   -0.0000   -0.0000   -0.0000    0.0364    0.0000   -0.0000
     5 N1     2px       -0.0000    0.0000    0.0000    0.0000    0.0000    0.0000   -0.0512   -0.0000    0.0001   -0.0170
     6 N1     *px        0.0000   -0.0000   -0.0000   -0.0000   -0.0000   -0.0001    0.0616    0.0000   -0.0001    0.0301
     7 N1     *px        0.0000   -0.0000   -0.0000    0.0000    0.0000    0.0000   -0.0208    0.0000    0.0001   -0.0264
     8 N1     2py       -0.0000   -0.0000    0.0000    0.0000   -0.0000   -0.0512   -0.0000   -0.0000   -0.0170   -0.0001
     9 N1     *py        0.0000    0.0000   -0.0000   -0.0000    0.0000    0.0616    0.0001   -0.0000    0.0301    0.0001
    10 N1     *py        0.0000    0.0000   -0.0000    0.0000    0.0000   -0.0208   -0.0000    0.0000   -0.0264   -0.0001
    11 N1     2pz        0.0000   -0.0000    0.0000    0.0000    0.0000    0.0000   -0.0000   -0.0418   -0.0000   -0.0000
    12 N1     *pz       -0.0000    0.0000   -0.0000   -0.0000   -0.0000    0.0000    0.0000    0.0190    0.0000   -0.0000
    13 N1     *pz        0.0000    0.0000    0.0000   -0.0000   -0.0000   -0.0000   -0.0000    0.0756   -0.0000    0.0000
    14 N1     *d2-      -0.0000   -0.0000    0.0000    0.0198   -0.0000   -0.0000   -0.0000   -0.0000   -0.0000   -0.0000
    15 N1     *d2-       0.0000   -0.0000    0.0000   -0.0064    0.0000   -0.0000   -0.0000    0.0000    0.0000    0.0000
    16 N1     *d1-       0.0000    0.0000   -0.0000    0.0000   -0.0000   -0.0934   -0.0001    0.0000   -0.8186   -0.0027
    17 N1     *d1-      -0.0000   -0.0000    0.0000   -0.0000   -0.0000    0.0224    0.0000   -0.0000    0.3888    0.0013
    18 N1     *d0       -0.0000   -0.0000   -0.0000   -0.0000   -0.0000    0.0000   -0.0000    0.2048    0.0000   -0.0000
    19 N1     *d0       -0.0000    0.0000    0.0000    0.0000    0.0000   -0.0000    0.0000   -0.0455   -0.0000    0.0000
    20 N1     *d1+       0.0000   -0.0000   -0.0000    0.0000    0.0000    0.0001   -0.0934    0.0000    0.0027   -0.8186
    21 N1     *d1+      -0.0000    0.0000    0.0000   -0.0000   -0.0000   -0.0000    0.0224   -0.0000   -0.0013    0.3888
    22 N1     *d2+       0.0000   -0.0000   -0.0000    0.0000    0.0198    0.0000   -0.0000   -0.0000    0.0000   -0.0000
    23 N1     *d2+      -0.0000   -0.0000   -0.0000   -0.0000   -0.0064    0.0000   -0.0000    0.0000   -0.0000    0.0000
    24 N1     *f3-      -0.0041   -0.7025    0.0126   -0.0000   -0.0000   -0.0000   -0.0000    0.0000    0.0000    0.0000
    25 N1     *f2-      -0.0000    0.0000   -0.0000    0.7075   -0.0000    0.0000    0.0000    0.0000    0.0000   -0.0000
    26 N1     *f1-      -0.0000   -0.0000    0.0000   -0.0000    0.0000   -0.7026   -0.0006   -0.0000   -0.0580   -0.0002
    27 N1     *f0        0.0000    0.0000   -0.0000    0.0000    0.0000    0.0000    0.0000    0.6832    0.0000    0.0000
    28 N1     *f1+      -0.0000    0.0000    0.0000   -0.0000   -0.0000    0.0006   -0.7026   -0.0000    0.0002   -0.0580
    29 N1     *f2+       0.0000    0.0000    0.0000    0.0000    0.7067   -0.0000    0.0000    0.0000   -0.0000    0.0000
    30 N1     *f3+       0.7116   -0.0126   -0.7025    0.0000   -0.0000   -0.0000    0.0000   -0.0000    0.0000   -0.0000
    31 N2     1s        -0.0000    0.0000    0.0000    0.0000    0.0000   -0.0000    0.0000   -0.0300    0.0000   -0.0000
    32 N2     2s        -0.0000    0.0000    0.0000    0.0000    0.0000   -0.0000    0.0000   -0.0325    0.0000   -0.0000
    33 N2     *s         0.0000   -0.0000   -0.0000   -0.0000   -0.0000    0.0000   -0.0000    0.0629   -0.0000    0.0000
    34 N2     *s         0.0000   -0.0000   -0.0000   -0.0000   -0.0000    0.0000   -0.0000   -0.0363   -0.0000    0.0000
    35 N2     2px       -0.0000   -0.0000   -0.0000    0.0000    0.0000   -0.0000    0.0512   -0.0000    0.0001   -0.0170
    36 N2     *px        0.0000    0.0000    0.0000   -0.0000   -0.0000    0.0001   -0.0616    0.0000   -0.0001    0.0300
    37 N2     *px        0.0000    0.0000    0.0000    0.0000    0.0000   -0.0000    0.0208    0.0000    0.0001   -0.0264
    38 N2     2py       -0.0000    0.0000   -0.0000    0.0000   -0.0000    0.0512    0.0000    0.0000   -0.0170   -0.0001
    39 N2     *py        0.0000   -0.0000    0.0000   -0.0000    0.0000   -0.0616   -0.0001   -0.0000    0.0300    0.0001
    40 N2     *py        0.0000   -0.0000    0.0000    0.0000   -0.0000    0.0208    0.0000   -0.0000   -0.0264   -0.0001
    41 N2     2pz        0.0000   -0.0000    0.0000   -0.0000   -0.0000   -0.0000    0.0000   -0.0418    0.0000   -0.0000
    42 N2     *pz       -0.0000   -0.0000   -0.0000    0.0000    0.0000    0.0000   -0.0000    0.0190   -0.0000    0.0000
    43 N2     *pz       -0.0000    0.0000    0.0000    0.0000    0.0000    0.0000    0.0000    0.0756   -0.0000    0.0000
    44 N2     *d2-       0.0000   -0.0000    0.0000   -0.0198    0.0000   -0.0000    0.0000   -0.0000    0.0000    0.0000
    45 N2     *d2-      -0.0000   -0.0000    0.0000    0.0064   -0.0000    0.0000   -0.0000    0.0000   -0.0000   -0.0000
    46 N2     *d1-      -0.0000    0.0000   -0.0000   -0.0000    0.0000   -0.0934   -0.0001    0.0000    0.8188    0.0027
    47 N2     *d1-       0.0000   -0.0000    0.0000    0.0000   -0.0000    0.0224    0.0000   -0.0000   -0.3889   -0.0013
    48 N2     *d0       -0.0000    0.0000    0.0000   -0.0000   -0.0000   -0.0000   -0.0000   -0.2048    0.0000    0.0000
    49 N2     *d0        0.0000   -0.0000   -0.0000    0.0000    0.0000    0.0000    0.0000    0.0456   -0.0000   -0.0000
    50 N2     *d1+      -0.0000   -0.0000   -0.0000   -0.0000   -0.0000    0.0001   -0.0934   -0.0000   -0.0027    0.8188
    51 N2     *d1+       0.0000    0.0000    0.0000    0.0000    0.0000   -0.0000    0.0224    0.0000    0.0013   -0.3889
    52 N2     *d2+      -0.0000   -0.0000   -0.0000   -0.0000   -0.0198   -0.0000   -0.0000   -0.0000   -0.0000    0.0000
    53 N2     *d2+       0.0000   -0.0000   -0.0000    0.0000    0.0064    0.0000   -0.0000    0.0000    0.0000   -0.0000
    54 N2     *f3-      -0.0040    0.7115   -0.0127   -0.0000   -0.0000    0.0000    0.0000    0.0000   -0.0000   -0.0000
    55 N2     *f2-      -0.0000   -0.0000    0.0000    0.7064   -0.0000   -0.0000   -0.0000   -0.0000    0.0000    0.0000
    56 N2     *f1-      -0.0000   -0.0000    0.0000   -0.0000    0.0000    0.7027    0.0006   -0.0000   -0.0580   -0.0002
    57 N2     *f0       -0.0000   -0.0000    0.0000   -0.0000   -0.0000    0.0000   -0.0000    0.6832   -0.0000    0.0000
    58 N2     *f1+      -0.0000    0.0000    0.0000   -0.0000   -0.0000   -0.0006    0.7027   -0.0000    0.0002   -0.0580
    59 N2     *f2+       0.0000   -0.0000   -0.0000    0.0000    0.7073    0.0000   -0.0000   -0.0000   -0.0000    0.0000
    60 N2     *f3+       0.7026    0.0127    0.7115    0.0000   -0.0000    0.0000   -0.0000    0.0000   -0.0000    0.0000


      Orbital                51        52        53        54        55        56        57        58        59        60
      Energy             0.0000    0.0000    0.0000    0.0000    0.0000    0.0000    0.0000    0.0000    0.0000    0.0000
      Occ. No.           0.0000    0.0000    0.0000    0.0000    0.0000    0.0000    0.0000    0.0000    0.0000    0.0000

     1 N1     1s        -0.1163    0.0000    0.0000    0.0000    0.0000   -0.0000   -0.0000    0.4642    1.6323   -1.7691
     2 N1     2s        -0.2520    0.0000    0.0000    0.0000    0.0000   -0.0000   -0.0000    0.9054    3.5557   -4.1032
     3 N1     *s         0.1600   -0.0000   -0.0000   -0.0000   -0.0000    0.0000    0.0000   -0.7304   -2.3237    2.3422
     4 N1     *s         0.1801    0.0000    0.0000   -0.0000   -0.0000    0.0000    0.0000   -0.3587   -2.1779    3.1034
     5 N1     2px       -0.0000    0.0000   -0.0000    0.0000    0.0000   -0.0895    0.0000   -0.0000    0.0000   -0.0000
     6 N1     *px        0.0000   -0.0000    0.0000   -0.0000   -0.0000    0.1146   -0.0000    0.0000   -0.0000    0.0000
     7 N1     *px       -0.0000   -0.0000   -0.0000   -0.0000    0.0000   -0.0559    0.0000    0.0000   -0.0000    0.0000
     8 N1     2py       -0.0000   -0.0000    0.0000    0.0000    0.0000    0.0000    0.0895    0.0000   -0.0000    0.0000
     9 N1     *py        0.0000    0.0000    0.0000   -0.0000   -0.0000   -0.0000   -0.1146   -0.0000    0.0000    0.0000
    10 N1     *py        0.0000   -0.0000   -0.0000    0.0000   -0.0000    0.0000    0.0559    0.0000   -0.0000   -0.0000
    11 N1     2pz       -0.2070    0.0000    0.0000    0.0000    0.0000    0.0000   -0.0000   -0.0289   -0.1072    0.1565
    12 N1     *pz        0.2140   -0.0000   -0.0000   -0.0000   -0.0000   -0.0000    0.0000   -0.0368    0.1292   -0.2977
    13 N1     *pz        0.0339    0.0000    0.0000   -0.0000   -0.0000   -0.0000    0.0000    0.2587    0.0257    0.5837
    14 N1     *d2-      -0.0000    0.8260   -0.0000   -0.8296    0.0000   -0.0000    0.0000   -0.0000    0.0000   -0.0000
    15 N1     *d2-       0.0000   -0.4145    0.0000    0.4258   -0.0000    0.0000   -0.0000    0.0000   -0.0000    0.0000
    16 N1     *d1-       0.0000    0.0000   -0.0000    0.0000   -0.0000   -0.0002   -0.8336   -0.0000   -0.0000    0.0000
    17 N1     *d1-      -0.0000   -0.0000    0.0000   -0.0000    0.0000    0.0001    0.4737    0.0000    0.0000   -0.0000
    18 N1     *d0        0.8084   -0.0000   -0.0000   -0.0000   -0.0000   -0.0000    0.0000   -0.7896    0.0615   -0.3173
    19 N1     *d0       -0.3765    0.0000    0.0000    0.0000    0.0000    0.0000   -0.0000    0.5609   -0.0295    0.4069
    20 N1     *d1+       0.0000    0.0000    0.0000    0.0000    0.0000    0.8336   -0.0002    0.0000    0.0000    0.0000
    21 N1     *d1+      -0.0000   -0.0000   -0.0000   -0.0000   -0.0000   -0.4737    0.0001   -0.0000   -0.0000    0.0000
    22 N1     *d2+      -0.0000    0.0000    0.8244   -0.0000   -0.8312   -0.0000   -0.0000   -0.0000    0.0000   -0.0000
    23 N1     *d2+       0.0000   -0.0000   -0.4137    0.0000    0.4266    0.0000    0.0000    0.0000   -0.0000    0.0000
    24 N1     *f3-       0.0000   -0.0000    0.0000    0.0000   -0.0000    0.0000    0.0000    0.0000    0.0000    0.0000
    25 N1     *f2-       0.0000    0.0049   -0.0000    0.0179   -0.0000   -0.0000    0.0000    0.0000   -0.0000    0.0000
    26 N1     *f1-       0.0000   -0.0000    0.0000    0.0000   -0.0000    0.0000    0.0881   -0.0000    0.0000   -0.0000
    27 N1     *f0        0.0911    0.0000    0.0000   -0.0000   -0.0000   -0.0000    0.0000    0.1785   -0.0075    0.1038
    28 N1     *f1+      -0.0000   -0.0000   -0.0000    0.0000    0.0000   -0.0881    0.0000    0.0000   -0.0000    0.0000
    29 N1     *f2+       0.0000    0.0000    0.0050    0.0000    0.0179   -0.0000    0.0000    0.0000   -0.0000    0.0000
    30 N1     *f3+      -0.0000    0.0000   -0.0000    0.0000    0.0000    0.0000   -0.0000    0.0000    0.0000    0.0000
    31 N2     1s        -0.1165   -0.0000   -0.0000    0.0000    0.0000   -0.0000   -0.0000   -0.4645    1.6333    1.7681
    32 N2     2s        -0.2522   -0.0000   -0.0000    0.0000    0.0000   -0.0000   -0.0000   -0.9060    3.5581    4.1009
    33 N2     *s         0.1602    0.0000    0.0000   -0.0000   -0.0000    0.0000    0.0000    0.7308   -2.3250   -2.3408
    34 N2     *s         0.1802   -0.0000   -0.0000   -0.0000   -0.0000    0.0000    0.0000    0.3590   -2.1797   -3.1020
    35 N2     2px        0.0000    0.0000    0.0000    0.0000    0.0000    0.0895   -0.0000   -0.0000   -0.0000   -0.0000
    36 N2     *px       -0.0000   -0.0000   -0.0000   -0.0000   -0.0000   -0.1146    0.0000    0.0000   -0.0000    0.0000
    37 N2     *px        0.0000   -0.0000    0.0000   -0.0000    0.0000    0.0559   -0.0000    0.0000    0.0000   -0.0000
    38 N2     2py       -0.0000    0.0000   -0.0000    0.0000   -0.0000   -0.0000   -0.0895   -0.0000   -0.0000   -0.0000
    39 N2     *py        0.0000   -0.0000    0.0000   -0.0000    0.0000    0.0000    0.1146    0.0000    0.0000    0.0000
    40 N2     *py        0.0000    0.0000    0.0000    0.0000   -0.0000   -0.0000   -0.0559    0.0000    0.0000    0.0000
    41 N2     2pz        0.2070   -0.0000    0.0000   -0.0000   -0.0000   -0.0000   -0.0000   -0.0290    0.1073    0.1564
    42 N2     *pz       -0.2140   -0.0000   -0.0000    0.0000    0.0000    0.0000    0.0000   -0.0368   -0.1294   -0.2977
    43 N2     *pz       -0.0339    0.0000    0.0000    0.0000    0.0000    0.0000    0.0000    0.2587   -0.0253    0.5837
    44 N2     *d2-       0.0000    0.8277   -0.0000    0.8280   -0.0000   -0.0000    0.0000   -0.0000   -0.0000   -0.0000
    45 N2     *d2-      -0.0000   -0.4154    0.0000   -0.4250    0.0000    0.0000   -0.0000    0.0000    0.0000    0.0000
    46 N2     *d1-      -0.0000    0.0000   -0.0000   -0.0000    0.0000   -0.0002   -0.8334   -0.0000   -0.0000   -0.0000
    47 N2     *d1-       0.0000   -0.0000    0.0000    0.0000   -0.0000    0.0001    0.4736    0.0000    0.0000   -0.0000
    48 N2     *d0        0.8085    0.0000    0.0000   -0.0000   -0.0000   -0.0000    0.0000    0.7894    0.0618    0.3173
    49 N2     *d0       -0.3767   -0.0000   -0.0000    0.0000    0.0000    0.0000   -0.0000   -0.5608   -0.0299   -0.4069
    50 N2     *d1+       0.0000    0.0000    0.0000   -0.0000   -0.0000    0.8334   -0.0002   -0.0000    0.0000   -0.0000
    51 N2     *d1+      -0.0000   -0.0000   -0.0000    0.0000    0.0000   -0.4736    0.0001    0.0000   -0.0000   -0.0000
    52 N2     *d2+       0.0000    0.0000    0.8292    0.0000    0.8264   -0.0000   -0.0000   -0.0000   -0.0000   -0.0000
    53 N2     *d2+      -0.0000   -0.0000   -0.4161   -0.0000   -0.4242    0.0000    0.0000    0.0000    0.0000    0.0000
    54 N2     *f3-      -0.0000    0.0000    0.0000    0.0000    0.0000    0.0000    0.0000   -0.0000   -0.0000   -0.0000
    55 N2     *f2-       0.0000   -0.0049    0.0000    0.0179   -0.0000    0.0000   -0.0000   -0.0000   -0.0000   -0.0000
    56 N2     *f1-       0.0000    0.0000   -0.0000    0.0000   -0.0000   -0.0000   -0.0881    0.0000   -0.0000    0.0000
    57 N2     *f0       -0.0911    0.0000    0.0000    0.0000    0.0000    0.0000    0.0000    0.1785    0.0076    0.1038
    58 N2     *f1+       0.0000    0.0000    0.0000    0.0000    0.0000    0.0881   -0.0000    0.0000    0.0000    0.0000
    59 N2     *f2+       0.0000   -0.0000   -0.0048    0.0000    0.0180    0.0000    0.0000   -0.0000   -0.0000   -0.0000
    60 N2     *f3+       0.0000   -0.0000    0.0000   -0.0000    0.0000    0.0000   -0.0000   -0.0000    0.0000   -0.0000
--

      Von Neumann Entropy (Root   1) =  2.88192


      Mulliken population analysis for root number:  1
      -----------------------------------------------


++    Molecular charges:
      ------------------

      Mulliken charges per centre and basis function type
      ---------------------------------------------------

                N1      N2    
      1s       2.0015  2.0015
      2s       2.0724  2.0725
      2px      0.9200  0.9200
      2pz      0.9274  0.9274
      2py      0.9200  0.9200
      *s      -0.0745 -0.0746
      *px      0.0791  0.0791
      *pz      0.0694  0.0694
      *py      0.0791  0.0791
      *d2+     0.0000  0.0000
      *d1+     0.0011  0.0011
      *d0      0.0033  0.0033
      *d1-     0.0011  0.0011
      *d2-     0.0000  0.0000
      *f3+     0.0000  0.0000
      *f2+     0.0000  0.0000
      *f1+     0.0000  0.0000
      *f0      0.0001  0.0001
      *f1-     0.0000  0.0000
      *f2-     0.0000  0.0000
      *f3-     0.0000  0.0000
      Total    7.0000  7.0000

      N-E     -0.0000  0.0000

      Total electronic charge=   14.000000

      Total            charge=   -0.000000
--



      Expectation values of various properties for root number:  1
      -----------------------------------------------------------

      Properties not supported for DMRGSCF 

++    Molecular properties:
      ---------------------

      Charge (e):
                      =   -0.0000
      Dipole Moment (Debye):
      Origin of the operator (Ang)=    0.0000    0.0000    0.0000
                   X=  5.0931E-09               Y= -3.7302E-08               Z=  1.0120E-05           Total=  1.0120E-05
      Quadrupole Moment (Debye*Ang):
      Origin of the operator (Ang)=    0.0000    0.0000    1.2000
                  XX= -1.1963E+01              XY=  3.1863E-10              XZ= -3.3402E-08              YY= -1.1963E+01
                  YZ= -2.0534E-08              ZZ= -1.1832E+01
      In traceless form (Debye*Ang)
                  XX= -6.5069E-02              XY=  4.7794E-10              XZ= -5.0103E-08              YY= -6.5069E-02
                  YZ= -3.0801E-08              ZZ=  1.3014E-01
--


      Input file to MOLDEN was generated!

      Average orbitals are written to the RASORB file
      Natural orbitals for root   1 are written to the RASORB.1 file
      Spin density orbitals for root   1 are written to the SPDORB.1 file

--- Stop Module: dmrgscf at Tue Apr  9 00:42:53 2024 /rc=_RC_ALL_IS_WELL_ ---
*** files: n2.GssOrb n2.guessorb.h5 n2.rasscf.molden n2.guessorb.molden n2.scf.molden n2.RasOrb n2.RasOrb.1 n2.dmrgscf.h5 n2.ScfOrb n2.scf.h5 n2.SpdOrb.1 xmldump
    saved to directory /public/home/xzzeng/work/HQC/N2/cc-pvtz/NO/PES/entropy/2.4/results/work_dir/n2/dmrg
--- Module dmrgscf spent 4 seconds ---

.##################.
.# Happy landing! #.
.##################.

    Timing: Wall=4.47 User=2.91 System=0.22
