Generated by MOKIT
SP        RHF                                                         MYBAS
Number of atoms                            I                2
Charge                                     I                0
Multiplicity                               I                1
Number of electrons                        I               14
Number of alpha electrons                  I                7
Number of beta electrons                   I                7
Number of basis functions                  I               60
Number of independent functions            I               60
Atomic numbers                             I   N=           2
           7           7
Nuclear charges                            R   N=           2
  7.00000000E+00  7.00000000E+00
Current cartesian coordinates              R   N=           6
  0.00000000E+00  0.00000000E+00  0.00000000E+00  0.00000000E+00  0.00000000E+00
  2.05980148E+00
Int Atom Types                             I   N=           2
           0           0
Number of contracted shells                I               20
Number of primitive shells                 I               52
Highest angular momentum                   I                3
Largest degree of contraction              I                8
Shell types                                I   N=          20
           0           0           0           0           1           1
           1          -2          -2          -3           0           0
           0           0           1           1           1          -2
          -2          -3
Number of primitives per shell             I   N=          20
           8           8           1           1           3           1
           1           1           1           1           8           8
           1           1           3           1           1           1
           1           1
Shell to atom map                          I   N=          20
           1           1           1           1           1           1
           1           1           1           1           2           2
           2           2           2           2           2           2
           2           2
Primitive exponents                        R   N=          52
  1.14200000E+04  1.71200000E+03  3.89300000E+02  1.10000000E+02  3.55700000E+01
  1.25400000E+01  4.64400000E+00  5.11800000E-01  1.14200000E+04  1.71200000E+03
  3.89300000E+02  1.10000000E+02  3.55700000E+01  1.25400000E+01  4.64400000E+00
  5.11800000E-01  1.29300000E+00  1.78700000E-01  2.66300000E+01  5.94800000E+00
  1.74200000E+00  5.55000000E-01  1.72500000E-01  1.65400000E+00  4.69000000E-01
  1.09300000E+00  1.14200000E+04  1.71200000E+03  3.89300000E+02  1.10000000E+02
  3.55700000E+01  1.25400000E+01  4.64400000E+00  5.11800000E-01  1.14200000E+04
  1.71200000E+03  3.89300000E+02  1.10000000E+02  3.55700000E+01  1.25400000E+01
  4.64400000E+00  5.11800000E-01  1.29300000E+00  1.78700000E-01  2.66300000E+01
  5.94800000E+00  1.74200000E+00  5.55000000E-01  1.72500000E-01  1.65400000E+00
  4.69000000E-01  1.09300000E+00
Contraction coefficients                   R   N=          52
  5.34980914E-04  4.13766310E-03  2.12509149E-02  8.25762988E-02  2.38413273E-01
  4.43431666E-01  3.55431909E-01 -8.70290176E-03 -1.98776985E-04 -1.54700349E-03
 -7.99256330E-03 -3.20255651E-02 -9.91102048E-02 -2.28292775E-01 -2.98182763E-01
  1.03700052E+00  1.00000000E+00  1.00000000E+00  3.98072123E-02  2.49002660E-01
  8.10479727E-01  1.00000000E+00  1.00000000E+00  1.00000000E+00  1.00000000E+00
  1.00000000E+00  5.34980914E-04  4.13766310E-03  2.12509149E-02  8.25762988E-02
  2.38413273E-01  4.43431666E-01  3.55431909E-01 -8.70290176E-03 -1.98776985E-04
 -1.54700349E-03 -7.99256330E-03 -3.20255651E-02 -9.91102048E-02 -2.28292775E-01
 -2.98182763E-01  1.03700052E+00  1.00000000E+00  1.00000000E+00  3.98072123E-02
  2.49002660E-01  8.10479727E-01  1.00000000E+00  1.00000000E+00  1.00000000E+00
  1.00000000E+00  1.00000000E+00
Coordinates of each shell                  R   N=          60
  0.00000000E+00  0.00000000E+00  0.00000000E+00  0.00000000E+00  0.00000000E+00
  0.00000000E+00  0.00000000E+00  0.00000000E+00  0.00000000E+00  0.00000000E+00
  0.00000000E+00  0.00000000E+00  0.00000000E+00  0.00000000E+00  0.00000000E+00
  0.00000000E+00  0.00000000E+00  0.00000000E+00  0.00000000E+00  0.00000000E+00
  0.00000000E+00  0.00000000E+00  0.00000000E+00  0.00000000E+00  0.00000000E+00
  0.00000000E+00  0.00000000E+00  0.00000000E+00  0.00000000E+00  0.00000000E+00
  0.00000000E+00  0.00000000E+00  2.05980148E+00  0.00000000E+00  0.00000000E+00
  2.05980148E+00  0.00000000E+00  0.00000000E+00  2.05980148E+00  0.00000000E+00
  0.00000000E+00  2.05980148E+00  0.00000000E+00  0.00000000E+00  2.05980148E+00
  0.00000000E+00  0.00000000E+00  2.05980148E+00  0.00000000E+00  0.00000000E+00
  2.05980148E+00  0.00000000E+00  0.00000000E+00  2.05980148E+00  0.00000000E+00
  0.00000000E+00  2.05980148E+00  0.00000000E+00  0.00000000E+00  2.05980148E+00
Num ILSW                                   I              100
ILSW                                       I   N=         100
           0           0           0           0           2           0
           0           0           0           0           0          -1
           5           0           0           0           0           0
           0           0           0           0           0           0
           1           1           0           0           0           0
           0           0      100000           0          -1           0
           0           0           0           0           0           0
           0           0           0           1           0           0
           0 -2000000000           1           0           0           0
           0           0           4          52           0           0
           0           0           0           0           0           0
           0           0           0           2           0           1
           0           0           0           0           0           0
           0           0           0           0           0           0
           0           0           0           0           0           0
           0           0           0           0           0           0
           0           0           0           0
Virial Ratio                               R      0.000000000000000E+00
Total Energy                               R      0.000000000000000E+00
Alpha Orbital Energies                     R   N=          60
 -1.56788991E+01 -1.56751945E+01 -1.47524143E+00 -7.74931177E-01 -6.33059313E-01
 -6.15342704E-01 -6.15342704E-01  1.65732750E-01  1.65732750E-01  4.26258249E-01
  5.60769681E-01  5.61241259E-01  5.61241259E-01  6.73196851E-01  7.33339329E-01
  7.33339329E-01  9.29348252E-01  1.04790667E+00  1.04790667E+00  1.10052688E+00
  1.34817902E+00  1.34817902E+00  1.51589573E+00  1.51589573E+00  1.93115361E+00
  1.94253777E+00  1.94253777E+00  2.26716986E+00  3.16522726E+00  3.16522726E+00
  3.30750642E+00  3.51710874E+00  3.51710874E+00  3.75115241E+00  3.83149558E+00
  3.83149558E+00  3.95434411E+00  3.95434411E+00  3.99519360E+00  3.99519360E+00
  4.40201099E+00  4.45392588E+00  4.45392588E+00  4.77379248E+00  4.77379248E+00
  4.87554254E+00  4.87554254E+00  4.90947421E+00  4.90947421E+00  5.04646070E+00
  5.32704937E+00  5.32704937E+00  5.43151234E+00  5.43151234E+00  5.54689843E+00
  6.20889311E+00  6.89536265E+00  6.89536265E+00  7.07392166E+00  1.70026181E+01
Alpha MO coefficients                      R   N=        3600
  6.91134906E-01  7.72821771E-04  2.99983018E-02  1.24078534E-03 -1.21670261E-17
  1.94002897E-16  1.86347450E-03  2.10614322E-17  4.23879048E-18 -2.89036517E-04
 -7.05741233E-19 -2.59599965E-18  3.64858567E-05  4.92942106E-04  1.85797480E-19
  3.10509392E-20  5.02095623E-19 -1.31732078E-19 -4.23006784E-04  9.85042181E-19
 -2.13237494E-18  1.39345619E-18  1.87166817E-19 -2.29110053E-04  1.16075469E-20
 -6.98817908E-20  3.58466851E-19  9.71245479E-20 -1.70198573E-19 -1.43958768E-19
  6.91134906E-01  7.72821771E-04  2.99983018E-02  1.24078534E-03 -1.12257416E-18
 -1.15883459E-17 -1.86347450E-03 -1.79008411E-18  7.23117607E-18  2.89036517E-04
 -6.00031216E-19 -1.31144071E-18 -3.64858566E-05  4.92942106E-04  2.99127881E-20
  4.52385020E-19  1.26716360E-19 -1.93751981E-19 -4.23006784E-04  1.25674749E-18
 -1.90613008E-18 -1.23528798E-18 -2.10299523E-19  2.29110053E-04 -1.54628479E-19
  9.56707897E-19  2.37158897E-19  1.39849691E-19 -6.48861525E-20  1.04062054E-20
 -6.90929171E-01  5.21225688E-04 -2.95498986E-02 -5.47477636E-03 -3.94831082E-17
  7.52941542E-17 -1.27865130E-03  1.45011064E-17  3.92871985E-18  4.31348909E-04
 -9.40113628E-19 -2.93308339E-18 -1.66628815E-03 -6.37344479E-04 -1.38897252E-19
  6.00779519E-19 -2.08937423E-19  2.04110784E-19 -2.32464621E-04  1.85845211E-18
 -3.31628604E-18 -9.07703772E-19 -9.11717076E-20 -3.98091721E-04  9.24140767E-20
 -5.71270358E-19  2.71928924E-20 -5.40083986E-20  8.62436474E-20  7.95193294E-20
  6.90929171E-01 -5.21225688E-04  2.95498986E-02  5.47477636E-03 -1.05566994E-18
 -1.14572549E-17 -1.27865130E-03 -2.37721380E-18  8.09074700E-18  4.31348909E-04
 -8.33523273E-19 -7.24514290E-19 -1.66628815E-03  6.37344479E-04  1.80251864E-20
  3.95889395E-19 -1.42795926E-19 -1.41281786E-19  2.32464621E-04  1.85191018E-18
 -2.45504997E-18 -4.67307525E-19 -1.11341704E-19 -3.98091721E-04 -2.10682501E-19
  9.33543477E-19  1.42454790E-19  5.23098770E-20 -2.97323611E-20 -5.12104257E-21
 -2.42600324E-02  3.53449928E-01  8.91071520E-02  9.61668447E-02 -1.01504817E-17
 -2.74962538E-16  1.27760469E-01  3.47868949E-17 -1.63054576E-16  1.29764075E-01
  3.87927694E-17  4.74476433E-17  1.64330989E-02  2.03020963E-02  3.81155564E-18
 -8.34312526E-18  8.02143454E-18  1.30601772E-18  1.87656110E-02 -3.41789978E-18
 -1.36384270E-17  3.75154961E-17  6.77223443E-18  7.54851861E-03  3.85943508E-18
 -2.55981399E-18  3.70768689E-18  9.80464548E-19 -3.25309916E-18 -2.72232004E-18
 -2.42600324E-02  3.53449928E-01  8.91071520E-02  9.61668447E-02  4.64029999E-18
 -6.33609622E-17 -1.27760469E-01  9.06261963E-18 -1.18766692E-16 -1.29764075E-01
  4.84099159E-18 -4.64646081E-17 -1.64330989E-02  2.03020963E-02 -1.92742027E-19
  2.57466485E-17  9.25013950E-18 -1.50362515E-18  1.87656110E-02 -1.56888496E-18
  2.47680979E-17 -3.61524149E-17 -1.73269445E-18 -7.54851861E-03  1.81206177E-18
 -7.74570646E-18  2.57898364E-18  5.05834136E-19 -1.23399124E-18  6.11042485E-19
  4.20372659E-03  3.79150300E-01  1.00079344E-01  3.06964405E-01 -1.50797635E-16
  2.29198576E-16 -1.18807274E-01  2.84907327E-16 -3.37666261E-17 -1.50314087E-01
 -8.39168789E-17 -5.57860606E-16 -7.68656049E-02 -3.43974458E-03 -6.08340845E-18
 -4.14060902E-17  6.23769026E-19  2.35386963E-17 -8.06636428E-03  7.21414769E-18
 -4.59304166E-17  2.47438240E-17  3.63277949E-17  1.99904029E-04 -1.96821240E-18
 -4.60591867E-17  1.29103500E-17  5.62088816E-18 -4.21760000E-19 -6.22902175E-19
 -4.20372659E-03 -3.79150300E-01 -1.00079344E-01 -3.06964405E-01 -3.90618420E-17
 -2.31206361E-16 -1.18807274E-01 -7.39455678E-17 -2.04833600E-16 -1.50314087E-01
 -4.36657380E-17 -1.36451932E-16 -7.68656049E-02  3.43974458E-03  4.27145019E-18
 -1.39049209E-17 -8.93139176E-19  2.76215128E-18  8.06636428E-03 -8.77216892E-18
  3.12776494E-17  3.17990239E-17  2.80219650E-18  1.99904029E-04 -6.96287596E-18
  4.14838209E-17 -8.77936685E-18  1.04542153E-18 -5.38020834E-19 -5.55583474E-19
  2.53867650E-03  1.36092777E-01  3.71403231E-02  2.70756068E-01 -1.65211554E-16
  8.05487060E-16 -2.58040355E-01 -8.47831521E-17  1.20360700E-15 -2.99739379E-01
  4.52215907E-16  1.89683912E-15 -1.48986483E-01 -1.83034582E-02  7.77574624E-18
  2.49234751E-16  3.73876809E-18 -8.22424343E-17 -1.58158127E-02 -3.00123498E-18
  3.02882129E-16  1.31849917E-17 -1.14759116E-16 -5.09429592E-03 -2.26748901E-17
  1.90984336E-16  1.37055077E-17 -1.19133372E-17 -1.36008907E-18 -6.80201655E-19
  2.53867650E-03  1.36092777E-01  3.71403231E-02  2.70756068E-01  1.88279840E-16
  1.12865767E-15  2.58040355E-01  3.75690389E-16  1.22019081E-15  2.99739379E-01
  1.43100721E-16  6.35951691E-16  1.48986483E-01 -1.83034582E-02 -2.91043172E-17
 -3.13120686E-17  1.53474302E-18 -9.35126840E-18 -1.58158127E-02  2.63272850E-18
 -8.49125689E-17 -3.16200232E-17 -1.19898964E-18  5.09429592E-03  2.32735653E-17
 -1.00675961E-16  1.77743696E-18 -8.20684819E-18 -3.97460373E-19  1.88363068E-19
 -7.12941312E-17 -2.28960834E-16 -1.37532955E-16 -2.95345120E-15  4.12688571E-02
  2.27975555E-01  1.21358313E-15  5.43676091E-02  3.00335089E-01  9.22095719E-16
  3.15239400E-02  1.74143125E-01 -2.98385011E-16  1.14991320E-16  3.57627370E-03
  1.97558896E-02 -1.17723501E-16  5.85590905E-17 -2.92039890E-16  6.82920204E-03
  3.77255693E-02 -3.79406841E-16 -2.67339493E-16 -1.49768848E-16  1.46350070E-03
  8.08460441E-03  1.72914683E-16 -1.12497816E-16 -3.11926007E-18  5.07682177E-17
  4.56281068E-17 -5.52550548E-16 -4.57091519E-18  2.85371367E-16  4.12688571E-02
  2.27975555E-01 -1.28259350E-15  5.43676091E-02  3.00335089E-01 -2.29862594E-15
  3.15239400E-02  1.74143125E-01 -1.00372525E-15  1.67980090E-16 -3.57627370E-03
 -1.97558896E-02  1.32351957E-16  7.58437612E-17  7.06150175E-16 -6.82920204E-03
 -3.77255693E-02 -1.53029136E-17  2.40936612E-16 -2.02885710E-16  1.46350070E-03
  8.08460441E-03  1.50325857E-16 -1.85939129E-17  8.47999872E-17  1.41402026E-16
  2.96997653E-16  5.77986245E-16  8.31913581E-17  3.02057672E-15  2.27975555E-01
 -4.12688571E-02  1.19161295E-15  3.00335089E-01 -5.43676091E-02  2.62939566E-16
  1.74143125E-01 -3.15239400E-02  1.41575245E-15 -4.40926048E-16  1.97558896E-02
 -3.57627370E-03  4.51872995E-17  2.72677258E-16  2.14973041E-16  3.77255693E-02
 -6.82920204E-03  4.10325334E-16 -2.05336866E-16  1.28254909E-15  8.08460441E-03
 -1.46350070E-03  3.96991319E-17 -9.73523963E-18 -1.27270126E-16 -1.40578086E-17
 -2.39561707E-16 -1.50970624E-15 -1.15307665E-15 -1.12313935E-15  2.27975555E-01
 -4.12688571E-02 -4.01097386E-16  3.00335089E-01 -5.43676091E-02  1.36763310E-15
  1.74143125E-01 -3.15239400E-02  1.60914346E-15 -3.24925452E-16 -1.97558896E-02
  3.57627370E-03 -2.21072118E-17 -7.56778266E-17 -3.20812044E-16 -3.77255693E-02
  6.82920204E-03 -1.63618374E-16 -9.03406640E-17  7.63622231E-16  8.08460441E-03
 -1.46350070E-03  4.89958507E-17  5.18338911E-17 -9.50559726E-17 -2.75701534E-17
 -7.35552476E-16 -1.38431706E-15 -9.41883310E-17  3.45712818E-14 -7.57678752E-02
 -2.18142023E-01  2.05228138E-16 -9.82953019E-02 -2.83000361E-01  1.87352045E-15
 -2.38072316E-01 -6.85430028E-01  1.78606660E-14 -2.36357907E-16  4.49552848E-03
  1.29430009E-02  3.99365661E-17  8.21528620E-17  8.11505108E-16 -3.31718449E-03
 -9.55045044E-03 -3.11881889E-16  2.65082236E-16  3.20106129E-16 -2.30287350E-04
 -6.63016460E-04 -1.73758023E-17  5.66115423E-17  1.42373680E-17 -1.13162884E-16
 -1.43748309E-15 -5.06273486E-15 -9.89240249E-16 -2.83327217E-14  7.57678752E-02
  2.18142023E-01 -3.08084763E-16  9.82953019E-02  2.83000361E-01  1.42277386E-15
  2.38072316E-01  6.85430028E-01  1.65148238E-14  4.54799752E-17  4.49552848E-03
  1.29430009E-02  1.94448521E-17 -2.14271530E-17 -2.08189872E-15 -3.31718449E-03
 -9.55045044E-03  6.07905819E-18  3.13262812E-16  2.03048222E-16  2.30287350E-04
  6.63016460E-04  2.76840353E-17 -4.66332400E-17 -1.63341737E-17  5.43186125E-17
  1.06770421E-16  2.02178141E-16  2.90297089E-17  4.31817123E-16  2.18142023E-01
 -7.57678752E-02  1.88839894E-16  2.83000361E-01 -9.82953019E-02  1.80891519E-16
  6.85430028E-01 -2.38072316E-01 -6.01813601E-16  4.74756840E-17 -1.29430009E-02
  4.49552848E-03 -2.31486875E-16  6.17140650E-17  3.24429143E-16  9.55045044E-03
 -3.31718449E-03  3.11240977E-16  2.78810752E-16  9.98010387E-17  6.63016460E-04
 -2.30287350E-04 -5.87535961E-17  6.47158702E-17  2.98751940E-17  2.41479293E-17
  4.02840521E-17  3.60104809E-16  7.05707944E-17 -4.92336689E-16 -2.18142023E-01
  7.57678752E-02  1.14820286E-16 -2.83000361E-01  9.82953019E-02  3.69066702E-16
 -6.85430028E-01  2.38072316E-01  3.32665863E-16 -1.36063300E-17 -1.29430009E-02
  4.49552848E-03  4.40298052E-17  4.62685387E-17 -1.79226216E-16  9.55045044E-03
 -3.31718449E-03  1.63427639E-16  3.05736622E-16  7.15205399E-18 -6.63016460E-04
  2.30287350E-04  9.21768172E-17  8.76743576E-17  7.59010113E-17 -3.96550781E-17
  5.77619048E-02  2.95586513E-01  5.30346760E-02  6.77746160E+00 -1.24737323E-16
  1.03737136E-15 -1.96854008E-02  6.66034722E-16  2.00501204E-15  2.98549727E-01
  1.30879681E-15  2.99198333E-15  3.68007680E+00 -1.86650401E-02  9.95802783E-17
  9.84977522E-17 -2.02059203E-17  3.78375031E-17  3.03452761E-01  8.79884530E-17
  4.02201675E-16  6.79428604E-17  1.87395108E-16  2.17598499E-02 -2.69026573E-17
  3.44680013E-16  5.66279522E-17  5.39615511E-17  7.50723473E-19  7.53803843E-19
 -5.77619048E-02 -2.95586513E-01 -5.30346760E-02 -6.77746160E+00 -6.38061625E-16
 -9.31099050E-16 -1.96854008E-02 -7.42938321E-17 -1.13374246E-15  2.98549727E-01
 -2.77112359E-15 -4.13282514E-15  3.68007680E+00  1.86650401E-02 -9.95871348E-17
  1.36652105E-16  2.19711555E-17  3.90066807E-17 -3.03452761E-01  3.83992482E-17
  1.91596480E-16 -1.70576705E-16 -1.43411916E-17  2.17598499E-02  5.87956131E-17
 -3.66748957E-16  4.87503633E-17  6.43508268E-17 -2.14122452E-18 -1.50064155E-18
 -6.22504712E-02 -9.60155354E-02 -5.85729937E-02 -2.56086120E-01  1.56689085E-15
  6.52490641E-15 -1.19492234E-01  6.51289533E-15  2.19002990E-14 -4.20794849E-01
 -1.03787124E-14 -3.71296049E-14  1.24454742E+00 -4.47842547E-02  8.04788185E-17
  3.95602738E-16 -5.23825978E-17  1.34214066E-16  1.21323571E-01 -6.75210484E-16
  4.04213767E-17  2.96609652E-16  1.03708026E-15  2.46254724E-02 -2.19064234E-16
 -4.89591444E-16 -3.39865682E-17 -4.13443784E-17 -2.16799520E-18 -1.76425436E-18
 -6.22504712E-02 -9.60155354E-02 -5.85729937E-02 -2.56086120E-01  3.06472790E-16
  2.14708283E-15  1.19492234E-01  2.14355239E-15  1.07638988E-14  4.20794849E-01
 -1.94473477E-16 -7.05647978E-15 -1.24454742E+00 -4.47842547E-02 -3.84813809E-17
 -3.32164377E-16  1.05105100E-17 -4.00449631E-17  1.21323571E-01 -1.66661949E-15
 -5.10752038E-15 -2.18801348E-16  1.85980521E-16 -2.46254724E-02  1.26859746E-16
  3.58821354E-16 -4.94457049E-17 -7.52265815E-17  8.81524404E-19  1.45535232E-18
 -2.20571663E-15 -4.54037502E-15 -1.51719201E-15 -7.27086667E-15  8.79462835E-02
 -1.06379798E-01 -2.02742253E-15  3.30157401E-01 -3.99358293E-01 -8.65852659E-15
 -4.47739979E-01  5.41586145E-01  2.25911586E-14 -8.67178680E-16  9.34461466E-03
 -1.13032431E-02  2.79398698E-16 -1.25301889E-16  1.46576057E-15  4.54459655E-02
 -5.49714263E-02  9.15827212E-16  1.53793689E-16  5.08162862E-16 -1.22492852E-03
  1.48167317E-03  1.09607885E-16  1.51066961E-16  9.12037955E-17  5.56799688E-16
 -2.30551496E-15 -5.28276287E-15 -1.84582161E-15  3.22251457E-15  8.79462835E-02
 -1.06379798E-01  2.20277853E-15  3.30157401E-01 -3.99358293E-01  6.62891650E-15
 -4.47739979E-01  5.41586145E-01 -2.61938973E-14 -8.82967794E-16 -9.34461466E-03
  1.13032431E-02  4.21015983E-17  8.85592971E-17  2.28347192E-15 -4.54459655E-02
  5.49714263E-02 -3.65024215E-16 -3.44964351E-16 -5.43528966E-16 -1.22492852E-03
  1.48167317E-03 -4.15333102E-17  5.51668524E-17 -4.96296314E-16 -4.82794739E-16
 -3.03158460E-15 -6.14805346E-15 -2.06069258E-15 -6.16433474E-15 -1.06379798E-01
 -8.79462835E-02 -2.76552638E-15 -3.99358293E-01 -3.30157401E-01 -1.12362921E-14
  5.41586145E-01  4.47739979E-01  3.20451509E-14 -1.45117703E-15 -1.13032431E-02
 -9.34461466E-03 -1.66239436E-16  1.66884821E-16  2.06116622E-15 -5.49714263E-02
 -4.54459655E-02  1.43808875E-15  6.65168332E-16  6.03505775E-16  1.48167317E-03
  1.22492852E-03 -2.65062876E-16  2.25541068E-16  9.62804520E-17 -2.37381329E-17
 -3.21490368E-15 -7.50186052E-15 -2.43526849E-15  1.06426339E-15 -1.06379798E-01
 -8.79462835E-02  2.51510087E-15 -3.99358293E-01 -3.30157401E-01  9.07173029E-15
  5.41586145E-01  4.47739979E-01 -3.29996653E-14 -1.24894858E-15  1.13032431E-02
  9.34461466E-03 -1.91503158E-16  8.64237083E-17  3.31930629E-15  5.49714263E-02
  4.54459655E-02  1.18703818E-16  6.71051692E-17 -8.01071484E-16  1.48167317E-03
  1.22492852E-03 -1.79231554E-16  7.72566210E-17  1.88693732E-16 -1.57707572E-16
 -3.15391975E-01 -9.02580022E-01 -1.53721630E-01  9.16177631E-01 -8.82521895E-16
  1.13764162E-15  5.21681766E-02  1.83494524E-15  5.77049040E-15  1.46994915E-01
 -5.89777206E-16 -3.08579513E-15  3.53020534E-02 -7.27148297E-03  1.61616382E-17
  3.01653997E-16 -6.67584884E-17 -2.05070876E-17 -1.37408565E-01 -3.22638389E-16
  1.31033282E-15  5.66625594E-16  3.69033973E-16  4.00397037E-03 -4.10168407E-16
  4.17090496E-16 -2.95715215E-16 -3.66879774E-16 -9.51430588E-18 -8.02348112E-18
 -3.15391975E-01 -9.02580022E-01 -1.53721630E-01  9.16177631E-01 -5.64375628E-16
 -3.14418318E-17 -5.21681766E-02  4.93062345E-16  2.41876059E-16 -1.46994915E-01
 -2.28791820E-15 -4.47360693E-15 -3.53020534E-02 -7.27148297E-03  2.91270208E-17
  3.92295622E-16  3.98264271E-18 -2.49301267E-16 -1.37408565E-01 -3.75912454E-16
 -6.19967605E-16 -6.30353119E-16  3.01240716E-17 -4.00397037E-03  1.28185656E-16
 -4.35700973E-16 -3.91904107E-16 -4.91119581E-16  5.34946987E-18  7.10868746E-18
  1.84981254E-15  4.29590467E-15  1.73485316E-15 -8.67295182E-14  8.64259336E-02
  1.96666222E-01 -1.61023770E-15  2.15596632E-01  4.90600140E-01 -1.38138740E-14
 -6.16497413E-01 -1.40286847E+00 -4.29857304E-14  3.55756854E-16  5.54643219E-03
  1.26211638E-02 -9.17788745E-17 -8.22499838E-17 -3.63533728E-15 -1.07782581E-01
 -2.45264263E-01 -9.23557362E-16  4.79764473E-15 -1.31683513E-15 -1.58464470E-02
 -3.60593254E-02  4.20727670E-16  1.74054570E-16 -4.66138214E-17  1.82376589E-16
 -3.41122878E-16 -1.31931146E-15 -4.72985817E-16  9.12313914E-14 -8.64259336E-02
 -1.96666222E-01 -3.47691215E-15 -2.15596632E-01 -4.90600140E-01 -2.22700339E-14
  6.16497413E-01  1.40286847E+00 -1.72762479E-14  8.02202048E-16  5.54643219E-03
  1.26211638E-02 -2.26727574E-16 -5.42856943E-17  2.18801694E-15 -1.07782581E-01
 -2.45264263E-01  7.73243231E-16  4.85506270E-15 -6.69516386E-16  1.58464470E-02
  3.60593254E-02  2.83323648E-16  5.36787723E-17  2.00523931E-16 -3.67956602E-16
 -2.02276106E-16 -4.12679333E-16 -7.34388949E-17  1.14662287E-15  1.96666222E-01
 -8.64259336E-02 -3.79515249E-17  4.90600140E-01 -2.15596632E-01 -8.77117766E-16
 -1.40286847E+00  6.16497413E-01  2.18598568E-15 -3.75434980E-17  1.26211638E-02
 -5.54643219E-03 -2.95249932E-16 -1.80067434E-16  3.62072887E-16 -2.45264263E-01
  1.07782581E-01  2.36928484E-15  1.54263943E-15  3.04602725E-17 -3.60593254E-02
  1.58464470E-02 -3.10072974E-16 -7.03663798E-16 -3.01721013E-16 -8.03260796E-17
 -4.67049212E-16 -1.11664689E-15 -1.87915769E-16 -3.17347233E-16 -1.96666222E-01
  8.64259336E-02  8.30394153E-17 -4.90600140E-01  2.15596632E-01 -9.30638355E-17
  1.40286847E+00 -6.16497413E-01 -3.23076754E-16 -4.13137145E-17  1.26211638E-02
 -5.54643219E-03  1.40941785E-16 -4.26623329E-16 -2.03566487E-16 -2.45264263E-01
  1.07782581E-01  1.56799685E-16  1.17386348E-15 -1.64348794E-16  3.60593254E-02
 -1.58464470E-02 -5.04642965E-16 -8.79923113E-16  3.32273036E-16  1.15424806E-16
  7.96949607E-02  2.28351555E-01  9.34288001E-02 -7.15358613E+00 -4.54583443E-15
 -4.86714351E-15 -1.63682505E-01  7.15474388E-16 -4.60461323E-15 -1.34384826E+00
  6.99128553E-15  1.87328915E-14 -2.51716171E+00 -2.22242775E-02 -2.19258223E-16
 -5.32736365E-16 -3.25182148E-16 -8.07790342E-17 -2.82677478E-01  2.64276761E-16
  6.58178517E-15  4.19900238E-15  3.95973970E-16 -6.52927089E-02 -9.37581889E-16
  1.23132750E-17 -1.23017826E-15 -1.52201286E-15 -2.85495703E-17 -2.73934839E-17
 -7.96949607E-02 -2.28351555E-01 -9.34288001E-02  7.15358613E+00  1.72605793E-15
  3.17143624E-15 -1.63682505E-01  3.80386893E-15  4.86478951E-15 -1.34384826E+00
 -8.72761154E-15 -1.95306283E-14 -2.51716171E+00  2.22242775E-02  5.23101640E-16
  4.52250739E-16  2.13484457E-17 -1.01866615E-15  2.82677478E-01  1.06064811E-15
  2.17606668E-15 -7.22454361E-16 -8.71201502E-16 -6.52927089E-02 -2.32533886E-16
 -1.10596128E-16 -1.60779306E-15 -2.02677992E-15  3.32083177E-17  3.06391625E-17
  1.80132742E-16  3.71651171E-16  1.40682925E-16 -1.76060292E-15 -4.25910940E-15
 -3.40897785E-15 -3.64134937E-18  1.13658696E-15 -1.41249966E-15  2.01222003E-16
  4.85426907E-15  9.86869900E-15 -2.34235447E-15  7.70204442E-17 -2.77463233E-16
 -6.80706597E-16 -1.24557886E-03 -7.03041748E-03 -3.44334987E-16  3.80740870E-16
  6.44610729E-15  1.05828064E-01  5.97325062E-01 -1.09581286E-16 -8.15650863E-16
  1.51578525E-16  8.06114840E-04  4.54995185E-03  1.48700589E-16 -2.50430778E-16
  2.05960468E-16  5.45894182E-16  2.06884114E-16  1.81100111E-15  2.10449928E-15
  9.30511232E-16 -8.13381290E-17  2.80892640E-15  8.20506798E-16 -7.70268430E-16
 -6.99955167E-15 -1.01970455E-14  7.87016871E-16  6.04061903E-17  4.91426158E-16
  2.68060280E-16 -1.24557886E-03 -7.03041748E-03 -1.90593105E-16  7.36402935E-16
  8.07443207E-17  1.05828064E-01  5.97325062E-01 -1.55570782E-17 -1.15422921E-16
 -4.13544794E-16 -8.06114840E-04 -4.54995185E-03 -7.87957878E-17 -6.41700825E-18
 -3.40975877E-16 -7.06351147E-16 -2.30904016E-16  1.54461866E-14  2.30641000E-16
  6.85517931E-16  6.20958322E-16  1.65790995E-16  2.27643534E-15  3.24432515E-15
  1.93642400E-15 -4.28394302E-15  5.39751070E-15  2.92225371E-17 -7.35628326E-17
  1.68027673E-16 -7.03041748E-03  1.24557886E-03  2.61626381E-16  1.08767784E-15
 -1.86799804E-15  5.97325062E-01 -1.05828064E-01  7.74937636E-17  9.74208517E-17
  7.55475470E-18  4.54995185E-03 -8.06114840E-04 -1.48976543E-17 -1.06259613E-16
  1.91574589E-16  3.61122276E-16  1.52558299E-16 -1.52951750E-14  3.28497659E-16
  1.19674662E-17  6.74525542E-16  2.10921211E-16  2.27318416E-16  3.36648137E-15
 -2.77616628E-15  2.73600477E-15  4.87216441E-15 -2.23870335E-17 -6.50707412E-17
  1.37987646E-17 -7.03041748E-03  1.24557886E-03 -1.03202893E-16  2.38350754E-15
  4.95092414E-16  5.97325062E-01 -1.05828064E-01  6.67798183E-17 -1.23138416E-16
  2.37894794E-16 -4.54995185E-03  8.06114840E-04  1.53893575E-16  5.78751528E-17
  1.75638882E-03  3.23851860E-01  1.57030926E-01 -9.65250272E+00  2.78785380E-16
  5.41328683E-16  2.63698427E-01 -1.19522603E-16  1.00852227E-15 -8.91265783E-01
 -6.20724156E-16 -1.60217625E-15 -4.03231850E+00 -6.28447704E-02  9.67008546E-17
  2.49845028E-16  2.21428190E-17  8.37240673E-17 -9.92695834E-01 -5.03971406E-17
  9.20804452E-17 -6.21453836E-16  5.85906640E-18 -9.70580155E-02  4.29515884E-18
  4.51925362E-16  7.19040074E-17  1.15472080E-16  2.68379705E-18  2.21872860E-18
 -1.75638883E-03 -3.23851860E-01 -1.57030926E-01  9.65250272E+00 -5.32978966E-16
 -1.97733060E-16  2.63698427E-01 -2.11185982E-16 -5.87845617E-16 -8.91265783E-01
  1.07541799E-16  5.70866663E-16 -4.03231850E+00  6.28447704E-02 -1.00945229E-16
  2.07848233E-16 -4.78269694E-17  7.35533586E-17  9.92695834E-01 -1.20509331E-17
  6.96642128E-17 -1.07284635E-16  1.67431070E-16 -9.70580155E-02  1.14034738E-16
 -4.46544786E-16  1.14494526E-16  1.53326965E-16 -4.50782103E-18 -3.09948505E-18
  2.09933675E-16  4.44105973E-16 -6.31424581E-17  2.07240630E-14  2.18189952E-02
 -6.57431564E-02  7.30036290E-16  1.08398245E-01 -3.26616450E-01  4.22572921E-15
 -3.67917929E-02  1.10857928E-01  7.21565752E-15 -6.98416632E-17 -1.09301158E-03
  3.29337032E-03  1.77194231E-16 -3.21452640E-16  1.11402987E-15 -2.03725651E-01
  6.13848954E-01 -4.37994929E-15  6.42113337E-15  5.36043659E-16  3.41993222E-03
 -1.03046514E-02  9.72186311E-17  7.48113466E-17 -1.56147792E-16 -2.79806884E-16
  5.26839370E-16  1.25270798E-15  1.05036189E-16 -2.21566869E-14  2.18189952E-02
 -6.57431564E-02  3.15016505E-16  1.08398245E-01 -3.26616450E-01  4.61495344E-15
 -3.67917929E-02  1.10857928E-01  7.68195205E-15 -1.32362889E-16  1.09301158E-03
 -3.29337032E-03 -2.84342757E-16  4.55671351E-16 -9.83168088E-16  2.03725651E-01
 -6.13848954E-01  5.26663036E-15 -1.19868154E-14  4.11891334E-16  3.41993222E-03
 -1.03046514E-02 -4.89196531E-17  4.76596407E-17  2.23340571E-17 -7.67183540E-17
  2.95742640E-19  1.38000909E-17  4.03815598E-18 -1.62652420E-16 -6.57431564E-02
 -2.18189952E-02  4.00587609E-17 -3.26616450E-01 -1.08398245E-01 -7.66611733E-17
  1.10857928E-01  3.67917929E-02 -1.79873806E-16  4.46472445E-17  3.29337032E-03
  1.09301158E-03 -7.75796272E-17  4.30925561E-17 -8.62909446E-17  6.13848954E-01
  2.03725651E-01 -7.84325948E-16 -4.19548735E-15  1.49014476E-17 -1.03046514E-02
 -3.41993222E-03  6.24873344E-16  2.75841306E-16 -6.97570686E-18 -1.54844315E-16
  1.07340855E-16  4.42381539E-16  2.35930127E-16 -3.91749135E-16 -6.57431564E-02
 -2.18189952E-02 -5.77084803E-17 -3.26616450E-01 -1.08398245E-01  1.38757968E-16
  1.10857928E-01  3.67917929E-02 -1.83858696E-16  3.54848257E-18 -3.29337032E-03
 -1.09301158E-03 -2.35474376E-16  2.30994053E-16  1.12890947E-16 -6.13848954E-01
 -2.03725651E-01  2.35465375E-15  2.38442283E-15 -4.63407913E-17 -1.03046514E-02
 -3.41993222E-03  4.27436290E-16  7.25042358E-16  1.31980206E-16  7.56390852E-18
 -9.86204872E-17 -2.08587796E-16 -7.20503463E-17 -5.80694018E-16  6.99315944E-16
 -4.88009473E-16  2.18521728E-17  4.38469437E-15 -1.67272451E-15 -4.53217744E-16
  1.97833241E-15  2.57156470E-15  7.11714607E-16 -2.90283442E-17  1.14494022E-16
  8.62686908E-17 -8.78654549E-03  1.90953259E-02  3.68889483E-16  7.70004352E-16
  9.63386519E-15  3.78843872E-01 -8.23320973E-01  8.71603111E-17  2.00201724E-16
  3.27894285E-16  2.47713506E-03 -5.38342415E-03 -6.81773587E-17  9.58068584E-17
 -1.67943442E-16 -4.13623065E-16 -1.76607649E-16  5.83240285E-16 -3.01625793E-16
 -8.30287672E-16 -7.43791266E-17  1.26825410E-16 -5.15202052E-15  1.38396533E-16
 -3.44549634E-15 -2.30674075E-16 -9.66522086E-16 -1.18874029E-17  2.12833737E-16
 -2.79318443E-16  8.78654549E-03 -1.90953259E-02  2.32305344E-16  8.94110198E-15
 -2.96531724E-15 -3.78843872E-01  8.23320973E-01 -4.50068149E-18 -1.44037281E-16
 -2.49629842E-16  2.47713506E-03 -5.38342415E-03  9.14767793E-17  1.69207505E-17