[Molden Format]
[N_Atoms]
                    2
[Atoms] (AU)
N1          1      7           0.00000000      0.00000000      0.00000000
N2          2      7           0.00000000      0.00000000      3.77945225
[5D]
[7F]
[Charge] (Mulliken)
   0.0000000000000000     
   0.0000000000000000     
[GTO] (AU)
   1
   s  10
  1.142000000E+04  5.229996559E-04
  1.712000000E+03  4.044997339E-03
  3.893000000E+02  2.077498633E-02
  1.100000000E+02  8.072694689E-02
  3.557000000E+01  2.330738467E-01
  1.254000000E+01  4.335007148E-01
  4.644000000E+00  3.474717714E-01
  1.293000000E+00  4.126197285E-02
  5.118000000E-01 -8.507994403E-03
  1.787000000E-01  2.383998432E-03
   s  10
  1.142000000E+04 -1.149999544E-04
  1.712000000E+03 -8.949996452E-04
  3.893000000E+02 -4.623998167E-03
  1.100000000E+02 -1.852799265E-02
  3.557000000E+01 -5.733897727E-02
  1.254000000E+01 -1.320759476E-01
  4.644000000E+00 -1.725099316E-01
  1.293000000E+00  1.518139398E-01
  5.118000000E-01  5.999437621E-01
  1.787000000E-01  3.874618464E-01
   s   1
  1.293000000E+00  1.000000000E+00
   s   1
  1.787000000E-01  1.000000000E+00
   p   5
  2.663000000E+01  1.467000345E-02
  5.948000000E+00  9.176402155E-02
  1.742000000E+00  2.986830701E-01
  5.550000000E-01  4.984871171E-01
  1.725000000E-01  3.370230791E-01
   p   1
  5.550000000E-01  1.000000000E+00
   p   1
  1.725000000E-01  1.000000000E+00
   d   1
  1.654000000E+00  1.000000000E+00
   d   1
  4.690000000E-01  1.000000000E+00
   f   1
  1.093000000E+00  1.000000000E+00
 
   2
   s  10
  1.142000000E+04  5.229996559E-04
  1.712000000E+03  4.044997339E-03
  3.893000000E+02  2.077498633E-02
  1.100000000E+02  8.072694689E-02
  3.557000000E+01  2.330738467E-01
  1.254000000E+01  4.335007148E-01
  4.644000000E+00  3.474717714E-01
  1.293000000E+00  4.126197285E-02
  5.118000000E-01 -8.507994403E-03
  1.787000000E-01  2.383998432E-03
   s  10
  1.142000000E+04 -1.149999544E-04
  1.712000000E+03 -8.949996452E-04
  3.893000000E+02 -4.623998167E-03
  1.100000000E+02 -1.852799265E-02
  3.557000000E+01 -5.733897727E-02
  1.254000000E+01 -1.320759476E-01
  4.644000000E+00 -1.725099316E-01
  1.293000000E+00  1.518139398E-01
  5.118000000E-01  5.999437621E-01
  1.787000000E-01  3.874618464E-01
   s   1
  1.293000000E+00  1.000000000E+00
   s   1
  1.787000000E-01  1.000000000E+00
   p   5
  2.663000000E+01  1.467000345E-02
  5.948000000E+00  9.176402155E-02
  1.742000000E+00  2.986830701E-01
  5.550000000E-01  4.984871171E-01
  1.725000000E-01  3.370230791E-01
   p   1
  5.550000000E-01  1.000000000E+00
   p   1
  1.725000000E-01  1.000000000E+00
   d   1
  1.654000000E+00  1.000000000E+00
   d   1
  4.690000000E-01  1.000000000E+00
   f   1
  1.093000000E+00  1.000000000E+00
 
[MO]
Sym=     1a  
Ene=   -15.6370
Spin= Alpha
Occup=    2.00000
   1         0.70760329
   2         0.00373840
   3        -0.00164949
   4         0.00194652
   5         0.00000000
   6         0.00000000
   7         0.00044782
   8        -0.00000000
   9        -0.00000000
  10        -0.00000782
  11         0.00000000
  12        -0.00000000
  13        -0.00002084
  14         0.00000000
  15         0.00000000
  16         0.00000000
  17        -0.00000000
  18        -0.00000000
  19        -0.00000000
  20        -0.00000000
  21        -0.00000000
  22         0.00000000
  23         0.00000000
  24        -0.00000000
  25         0.00000000
  26        -0.00000000
  27        -0.00000000
  28         0.00000000
  29         0.00000000
  30        -0.00000000
  31         0.70760329
  32         0.00373840
  33        -0.00164949
  34         0.00194652
  35         0.00000000
  36         0.00000000
  37        -0.00044782
  38         0.00000000
  39        -0.00000000
  40         0.00000782
  41        -0.00000000
  42        -0.00000000
  43         0.00002084
  44        -0.00000000
  45         0.00000000
  46         0.00000000
  47         0.00000000
  48        -0.00000000
  49         0.00000000
  50         0.00000000
  51        -0.00000000
  52        -0.00000000
  53         0.00000000
  54        -0.00000000
  55         0.00000000
  56        -0.00000000
  57         0.00000000
  58        -0.00000000
  59         0.00000000
  60         0.00000000
Sym=     2a  
Ene=   -15.6310
Spin= Alpha
Occup=    2.00000
   1        -0.70775203
   2        -0.00312836
   3         0.00165596
   4        -0.00194338
   5         0.00000000
   6        -0.00000000
   7         0.00043770
   8        -0.00000000
   9         0.00000000
  10        -0.00000764
  11        -0.00000000
  12        -0.00000000
  13        -0.00002037
  14         0.00000000
  15        -0.00000000
  16        -0.00000000
  17        -0.00000000
  18        -0.00000000
  19        -0.00000000
  20         0.00000000
  21        -0.00000000
  22         0.00000000
  23         0.00000000
  24        -0.00000000
  25        -0.00000000
  26         0.00000000
  27         0.00000000
  28         0.00000000
  29        -0.00000000
  30        -0.00000000
  31         0.70775203
  32         0.00312836
  33        -0.00165596
  34         0.00194338
  35         0.00000000
  36        -0.00000000
  37         0.00043770
  38        -0.00000000
  39         0.00000000
  40        -0.00000764
  41        -0.00000000
  42         0.00000000
  43        -0.00002037
  44        -0.00000000
  45        -0.00000000
  46         0.00000000
  47         0.00000000
  48        -0.00000000
  49         0.00000000
  50         0.00000000
  51         0.00000000
  52        -0.00000000
  53        -0.00000000
  54        -0.00000000
  55         0.00000000
  56         0.00000000
  57         0.00000000
  58         0.00000000
  59        -0.00000000
  60        -0.00000000
Sym=     3a  
Ene=    -1.0882
Spin= Alpha
Occup=    2.00000
   1        -0.01475491
   2         0.62372534
   3         0.00628623
   4         0.00358290
   5         0.00000000
   6         0.00000000
   7         0.15518268
   8        -0.00000000
   9        -0.00000000
  10        -0.00270986
  11         0.00000000
  12        -0.00000000
  13        -0.00722334
  14         0.00000000
  15         0.00000000
  16        -0.00000000
  17         0.00000000
  18         0.00000000
  19        -0.00000000
  20         0.00000000
  21         0.00000000
  22        -0.00000000
  23         0.00000000
  24        -0.00000000
  25         0.00000000
  26         0.00000000
  27        -0.00000000
  28         0.00000000
  29         0.00000000
  30        -0.00000000
  31        -0.01475491
  32         0.62372534
  33         0.00628623
  34         0.00358290
  35         0.00000000
  36        -0.00000000
  37        -0.15518268
  38         0.00000000
  39         0.00000000
  40         0.00270986
  41        -0.00000000
  42        -0.00000000
  43         0.00722334
  44        -0.00000000
  45        -0.00000000
  46         0.00000000
  47         0.00000000
  48        -0.00000000
  49         0.00000000
  50         0.00000000
  51         0.00000000
  52        -0.00000000
  53        -0.00000000
  54        -0.00000000
  55         0.00000000
  56        -0.00000000
  57        -0.00000000
  58        -0.00000000
  59         0.00000000
  60         0.00000000
Sym=     4a  
Ene=    -0.8766
Spin= Alpha
Occup=    2.00000
   1         0.00620290
   2        -0.69501951
   3        -0.00698036
   4        -0.00402029
   5         0.00000000
   6        -0.00000000
   7         0.17280768
   8        -0.00000000
   9         0.00000000
  10        -0.00301764
  11        -0.00000000
  12         0.00000000
  13        -0.00804374
  14        -0.00000000
  15        -0.00000000
  16        -0.00000000
  17         0.00000000
  18         0.00000000
  19         0.00000000
  20         0.00000000
  21        -0.00000000
  22        -0.00000000
  23        -0.00000000
  24        -0.00000000
  25         0.00000000
  26        -0.00000000
  27        -0.00000000
  28        -0.00000000
  29         0.00000000
  30         0.00000000
  31        -0.00620290
  32         0.69501951
  33         0.00698036
  34         0.00402029
  35         0.00000000
  36         0.00000000
  37         0.17280768
  38        -0.00000000
  39        -0.00000000
  40        -0.00301764
  41         0.00000000
  42        -0.00000000
  43        -0.00804374
  44         0.00000000
  45        -0.00000000
  46         0.00000000
  47        -0.00000000
  48         0.00000000
  49        -0.00000000
  50         0.00000000
  51         0.00000000
  52         0.00000000
  53        -0.00000000
  54         0.00000000
  55         0.00000000
  56        -0.00000000
  57        -0.00000000
  58        -0.00000000
  59        -0.00000000
  60        -0.00000000
Sym=     5a  
Ene=    -0.6395
Spin= Alpha
Occup=    2.00000
   1         0.00571479
   2         0.24440310
   3         0.00243581
   4         0.00143521
   5         0.00000000
   6         0.00000000
   7        -0.67404707
   8        -0.00000000
   9        -0.00000000
  10         0.01177049
  11        -0.00000000
  12        -0.00000000
  13         0.03137509
  14         0.00000000
  15         0.00000000
  16        -0.00000000
  17         0.00000000
  18        -0.00000000
  19        -0.00000000
  20        -0.00000000
  21         0.00000000
  22         0.00000000
  23         0.00000000
  24        -0.00000000
  25        -0.00000000
  26        -0.00000000
  27         0.00000000
  28        -0.00000000
  29        -0.00000000
  30        -0.00000000
  31         0.00571479
  32         0.24440310
  33         0.00243581
  34         0.00143521
  35         0.00000000
  36         0.00000000
  37         0.67404707
  38         0.00000000
  39        -0.00000000
  40        -0.01177049
  41        -0.00000000
  42        -0.00000000
  43        -0.03137509
  44        -0.00000000
  45         0.00000000
  46         0.00000000
  47        -0.00000000
  48        -0.00000000
  49         0.00000000
  50        -0.00000000
  51         0.00000000
  52         0.00000000
  53        -0.00000000
  54        -0.00000000
  55         0.00000000
  56         0.00000000
  57        -0.00000000
  58         0.00000000
  59        -0.00000000
  60         0.00000000
Sym=     6a  
Ene=    -0.6104
Spin= Alpha
Occup=    2.00000
   1        -0.00000000
   2        -0.00000000
   3         0.00000000
   4         0.00000000
   5         0.62098853
   6         0.36512143
   7         0.00000000
   8        -0.01084396
   9        -0.00637590
  10         0.00000000
  11        -0.02890536
  12        -0.01699543
  13        -0.00000000
  14         0.00000000
  15         0.00000000
  16         0.00000000
  17         0.00000000
  18        -0.00000000
  19        -0.00000000
  20        -0.00000000
  21         0.00000000
  22        -0.00000000
  23         0.00000000
  24         0.00000000
  25        -0.00000000
  26         0.00000000
  27         0.00000000
  28        -0.00000000
  29        -0.00000000
  30         0.00000000
  31        -0.00000000
  32        -0.00000000
  33         0.00000000
  34         0.00000000
  35         0.62098853
  36         0.36512143
  37        -0.00000000
  38        -0.01084396
  39        -0.00637590
  40         0.00000000
  41        -0.02890536
  42        -0.01699543
  43        -0.00000000
  44        -0.00000000
  45        -0.00000000
  46         0.00000000
  47         0.00000000
  48         0.00000000
  49         0.00000000
  50        -0.00000000
  51        -0.00000000
  52         0.00000000
  53         0.00000000
  54        -0.00000000
  55         0.00000000
  56        -0.00000000
  57        -0.00000000
  58        -0.00000000
  59        -0.00000000
  60         0.00000000
Sym=     7a  
Ene=    -0.6104
Spin= Alpha
Occup=    2.00000
   1        -0.00000000
   2        -0.00000000
   3         0.00000000
   4         0.00000000
   5        -0.36512143
   6         0.62098853
   7        -0.00000000
   8         0.00637590
   9        -0.01084396
  10         0.00000000
  11         0.01699543
  12        -0.02890536
  13        -0.00000000
  14         0.00000000
  15        -0.00000000
  16        -0.00000000
  17         0.00000000
  18        -0.00000000
  19        -0.00000000
  20         0.00000000
  21         0.00000000
  22        -0.00000000
  23         0.00000000
  24         0.00000000
  25         0.00000000
  26        -0.00000000
  27         0.00000000
  28        -0.00000000
  29         0.00000000
  30         0.00000000
  31        -0.00000000
  32        -0.00000000
  33         0.00000000
  34         0.00000000
  35        -0.36512143
  36         0.62098853
  37        -0.00000000
  38         0.00637590
  39        -0.01084396
  40         0.00000000
  41         0.01699543
  42        -0.02890536
  43        -0.00000000
  44        -0.00000000
  45         0.00000000
  46         0.00000000
  47        -0.00000000
  48        -0.00000000
  49         0.00000000
  50         0.00000000
  51        -0.00000000
  52        -0.00000000
  53         0.00000000
  54        -0.00000000
  55        -0.00000000
  56         0.00000000
  57         0.00000000
  58         0.00000000
  59         0.00000000
  60         0.00000000
Sym=     8a  
Ene=    -0.5308
Spin= Alpha
Occup=    0.00000
   1        -0.00000000
   2        -0.00000000
   3         0.00000000
   4         0.00000000
   5        -0.29523277
   6        -0.71388961
   7        -0.00000000
   8         0.00515548
   9         0.01246623
  10         0.00000000
  11         0.01374230
  12         0.03322966
  13         0.00000000
  14        -0.00000000
  15         0.00000000
  16        -0.00000000
  17         0.00000000
  18         0.00000000
  19         0.00000000
  20        -0.00000000
  21         0.00000000
  22        -0.00000000
  23         0.00000000
  24         0.00000000
  25        -0.00000000
  26        -0.00000000
  27         0.00000000
  28         0.00000000
  29         0.00000000
  30        -0.00000000
  31        -0.00000000
  32        -0.00000000
  33         0.00000000
  34         0.00000000
  35         0.29523277
  36         0.71388961
  37        -0.00000000
  38        -0.00515548
  39        -0.01246623
  40         0.00000000
  41        -0.01374230
  42        -0.03322966
  43         0.00000000
  44         0.00000000
  45         0.00000000
  46        -0.00000000
  47         0.00000000
  48         0.00000000
  49        -0.00000000
  50        -0.00000000
  51         0.00000000
  52        -0.00000000
  53        -0.00000000
  54         0.00000000
  55        -0.00000000
  56         0.00000000
  57         0.00000000
  58         0.00000000
  59        -0.00000000
  60        -0.00000000
Sym=     9a  
Ene=    -0.5308
Spin= Alpha
Occup=    0.00000
   1         0.00000000
   2         0.00000000
   3        -0.00000000
   4        -0.00000000
   5        -0.71388961
   6         0.29523277
   7        -0.00000000
   8         0.01246623
   9        -0.00515548
  10         0.00000000
  11         0.03322966
  12        -0.01374230
  13         0.00000000
  14         0.00000000
  15        -0.00000000
  16        -0.00000000
  17        -0.00000000
  18        -0.00000000
  19        -0.00000000
  20        -0.00000000
  21        -0.00000000
  22         0.00000000
  23         0.00000000
  24        -0.00000000
  25        -0.00000000
  26        -0.00000000
  27        -0.00000000
  28        -0.00000000
  29         0.00000000
  30         0.00000000
  31         0.00000000
  32         0.00000000
  33        -0.00000000
  34        -0.00000000
  35         0.71388961
  36        -0.29523277
  37         0.00000000
  38        -0.01246623
  39         0.00515548
  40        -0.00000000
  41        -0.03322966
  42         0.01374230
  43        -0.00000000
  44         0.00000000
  45         0.00000000
  46         0.00000000
  47        -0.00000000
  48        -0.00000000
  49        -0.00000000
  50        -0.00000000
  51        -0.00000000
  52         0.00000000
  53         0.00000000
  54         0.00000000
  55        -0.00000000
  56         0.00000000
  57        -0.00000000
  58        -0.00000000
  59        -0.00000000
  60        -0.00000000
Sym=    10a  
Ene=    -0.4271
Spin= Alpha
Occup=    0.00000
   1         0.01107732
   2         0.29891292
   3         0.00296933
   4         0.00176643
   5         0.00000000
   6        -0.00000000
   7         0.82483465
   8        -0.00000000
   9         0.00000000
  10        -0.01440360
  11        -0.00000000
  12         0.00000000
  13        -0.03839385
  14        -0.00000000
  15        -0.00000000
  16         0.00000000
  17        -0.00000000
  18         0.00000000
  19         0.00000000
  20         0.00000000
  21         0.00000000
  22         0.00000000
  23         0.00000000
  24         0.00000000
  25        -0.00000000
  26         0.00000000
  27         0.00000000
  28        -0.00000000
  29        -0.00000000
  30         0.00000000
  31        -0.01107732
  32        -0.29891292
  33        -0.00296933
  34        -0.00176643
  35         0.00000000
  36         0.00000000
  37         0.82483465
  38        -0.00000000
  39        -0.00000000
  40        -0.01440360
  41         0.00000000
  42        -0.00000000
  43        -0.03839385
  44         0.00000000
  45        -0.00000000
  46        -0.00000000
  47         0.00000000
  48         0.00000000
  49        -0.00000000
  50         0.00000000
  51         0.00000000
  52        -0.00000000
  53        -0.00000000
  54         0.00000000
  55         0.00000000
  56         0.00000000
  57         0.00000000
  58        -0.00000000
  59         0.00000000
  60        -0.00000000
Sym=    11a  
Ene=     3.8893
Spin= Alpha
Occup=    0.00000
   1        -0.00456204
   2         0.00226796
   3        -0.10110680
   4         0.95315993
   5        -0.00000000
   6         0.00000000
   7         0.07347841
   8        -0.00000000
   9         0.00000000
  10        -0.71398524
  11         0.00000000
  12        -0.00000000
  13         1.77689845
  14        -0.02515809
  15        -0.00000000
  16         0.00000000
  17        -0.00000000
  18        -0.00000000
  19         0.18032121
  20        -0.00000000
  21        -0.00000000
  22        -0.00000000
  23         0.00000000
  24         0.01863206
  25         0.00000000
  26        -0.00000000
  27        -0.00000000
  28         0.00000000
  29        -0.00000000
  30         0.00000000
  31         0.00456204
  32        -0.00226796
  33         0.10110680
  34        -0.95315993
  35        -0.00000000
  36         0.00000000
  37         0.07347841
  38         0.00000000
  39        -0.00000000
  40        -0.71398524
  41        -0.00000000
  42         0.00000000
  43         1.77689845
  44         0.02515809
  45         0.00000000
  46        -0.00000000
  47         0.00000000
  48        -0.00000000
  49        -0.18032121
  50        -0.00000000
  51         0.00000000
  52        -0.00000000
  53         0.00000000
  54         0.01863206
  55        -0.00000000
  56        -0.00000000
  57         0.00000000
  58         0.00000000
  59         0.00000000
  60        -0.00000000
Sym=    12a  
Ene=     4.0252
Spin= Alpha
Occup=    0.00000
   1         0.00000000
   2         0.00000000
   3         0.00000000
   4        -0.00000000
   5         0.01175953
   6        -0.09664199
   7        -0.00000000
   8        -0.09801844
   9         0.80553371
  10         0.00000000
  11         0.13441931
  12        -1.10468279
  13        -0.00000000
  14        -0.00000000
  15         0.00023352
  16        -0.00191911
  17        -0.00000000
  18         0.00000000
  19         0.00000000
  20        -0.00176864
  21         0.01453499
  22         0.00000000
  23        -0.00000000
  24        -0.00000000
  25         0.00069477
  26        -0.00570972
  27         0.00000000
  28        -0.00000000
  29         0.00000000
  30        -0.00000000
  31         0.00000000
  32         0.00000000
  33        -0.00000000
  34         0.00000000
  35        -0.01175953
  36         0.09664199
  37        -0.00000000
  38         0.09801844
  39        -0.80553371
  40         0.00000000
  41        -0.13441931
  42         1.10468279
  43        -0.00000000
  44        -0.00000000
  45         0.00023352
  46        -0.00191911
  47        -0.00000000
  48        -0.00000000
  49         0.00000000
  50        -0.00176864
  51         0.01453499
  52         0.00000000
  53        -0.00000000
  54        -0.00000000
  55        -0.00069477
  56         0.00570972
  57         0.00000000
  58        -0.00000000
  59        -0.00000000
  60         0.00000000
Sym=    13a  
Ene=     4.0252
Spin= Alpha
Occup=    0.00000
   1        -0.00000000
   2        -0.00000000
   3         0.00000000
   4         0.00000000
   5        -0.09664199
   6        -0.01175953
   7         0.00000000
   8         0.80553371
   9         0.09801844
  10        -0.00000000
  11        -1.10468279
  12        -0.13441931
  13         0.00000000
  14         0.00000000
  15        -0.00191911
  16        -0.00023352
  17        -0.00000000
  18        -0.00000000
  19        -0.00000000
  20         0.01453499
  21         0.00176864
  22         0.00000000
  23         0.00000000
  24        -0.00000000
  25        -0.00570972
  26        -0.00069477
  27        -0.00000000
  28        -0.00000000
  29         0.00000000
  30        -0.00000000
  31        -0.00000000
  32        -0.00000000
  33         0.00000000
  34         0.00000000
  35         0.09664199
  36         0.01175953
  37        -0.00000000
  38        -0.80553371
  39        -0.09801844
  40         0.00000000
  41         1.10468279
  42         0.13441931
  43        -0.00000000
  44         0.00000000
  45        -0.00191911
  46        -0.00023352
  47         0.00000000
  48        -0.00000000
  49        -0.00000000
  50         0.01453499
  51         0.00176864
  52         0.00000000
  53        -0.00000000
  54         0.00000000
  55         0.00570972
  56         0.00069477
  57        -0.00000000
  58        -0.00000000
  59         0.00000000
  60         0.00000000
Sym=    14a  
Ene=     4.0385
Spin= Alpha
Occup=    0.00000
   1         0.00000000
   2         0.00000000
   3        -0.00000000
   4        -0.00000000
   5         0.02464964
   6         0.10177811
   7        -0.00000000
   8        -0.19453773
   9        -0.80324431
  10         0.00000000
  11         0.19030640
  12         0.78577321
  13        -0.00000000
  14        -0.00000000
  15         0.00192093
  16         0.00793150
  17        -0.00000000
  18         0.00000000
  19         0.00000000
  20        -0.01279771
  21        -0.05284160
  22         0.00000000
  23        -0.00000000
  24         0.00000000
  25        -0.00166948
  26        -0.00689327
  27        -0.00000000
  28         0.00000000
  29         0.00000000
  30        -0.00000000
  31         0.00000000
  32         0.00000000
  33        -0.00000000
  34        -0.00000000
  35         0.02464964
  36         0.10177811
  37         0.00000000
  38        -0.19453773
  39        -0.80324431
  40        -0.00000000
  41         0.19030640
  42         0.78577321
  43         0.00000000
  44        -0.00000000
  45        -0.00192093
  46        -0.00793150
  47        -0.00000000
  48         0.00000000
  49         0.00000000
  50         0.01279771
  51         0.05284160
  52         0.00000000
  53        -0.00000000
  54        -0.00000000
  55        -0.00166948
  56        -0.00689327
  57        -0.00000000
  58        -0.00000000
  59         0.00000000
  60        -0.00000000
Sym=    15a  
Ene=     4.0385
Spin= Alpha
Occup=    0.00000
   1        -0.00000000
   2        -0.00000000
   3         0.00000000
   4         0.00000000
   5         0.10177811
   6        -0.02464964
   7        -0.00000000
   8        -0.80324431
   9         0.19453773
  10         0.00000000
  11         0.78577321
  12        -0.19030640
  13        -0.00000000
  14        -0.00000000
  15         0.00793150
  16        -0.00192093
  17         0.00000000
  18        -0.00000000
  19         0.00000000
  20        -0.05284160
  21         0.01279771
  22        -0.00000000
  23         0.00000000
  24         0.00000000
  25        -0.00689327
  26         0.00166948
  27        -0.00000000
  28        -0.00000000
  29         0.00000000
  30         0.00000000
  31        -0.00000000
  32        -0.00000000
  33         0.00000000
  34         0.00000000
  35         0.10177811
  36        -0.02464964
  37         0.00000000
  38        -0.80324431
  39         0.19453773
  40        -0.00000000
  41         0.78577321
  42        -0.19030640
  43         0.00000000
  44        -0.00000000
  45        -0.00793150
  46         0.00192093
  47         0.00000000
  48        -0.00000000
  49         0.00000000
  50         0.05284160
  51        -0.01279771
  52        -0.00000000
  53         0.00000000
  54        -0.00000000
  55        -0.00689327
  56         0.00166948
  57         0.00000000
  58         0.00000000
  59         0.00000000
  60        -0.00000000
Sym=    16a  
Ene=     4.0579
Spin= Alpha
Occup=    0.00000
   1        -0.10352830
   2        -0.38623113
   3         0.08360410
   4         0.54526356
   5        -0.00000000
   6        -0.00000000
   7        -0.12652823
   8         0.00000000
   9         0.00000000
  10         0.82913357
  11        -0.00000000
  12        -0.00000000
  13        -0.83986447
  14        -0.02152002
  15        -0.00000000
  16        -0.00000000
  17         0.00000000
  18         0.00000000
  19         0.19718299
  20         0.00000000
  21         0.00000000
  22        -0.00000000
  23        -0.00000000
  24         0.00711481
  25         0.00000000
  26         0.00000000
  27        -0.00000000
  28         0.00000000
  29         0.00000000
  30         0.00000000
  31        -0.10352830
  32        -0.38623113
  33         0.08360410
  34         0.54526356
  35        -0.00000000
  36        -0.00000000
  37         0.12652823
  38         0.00000000
  39         0.00000000
  40        -0.82913357
  41        -0.00000000
  42        -0.00000000
  43         0.83986447
  44        -0.02152002
  45        -0.00000000
  46         0.00000000
  47         0.00000000
  48        -0.00000000
  49         0.19718299
  50         0.00000000
  51        -0.00000000
  52        -0.00000000
  53         0.00000000
  54        -0.00711481
  55         0.00000000
  56         0.00000000
  57         0.00000000
  58        -0.00000000
  59         0.00000000
  60         0.00000000
Sym=    17a  
Ene=     4.3665
Spin= Alpha
Occup=    0.00000
   1         0.53332565
   2         1.95149740
   3        -0.42561421
   4        -1.79202879
   5        -0.00000000
   6        -0.00000000
   7        -0.01583189
   8         0.00000000
   9         0.00000000
  10         0.00289659
  11        -0.00000000
  12        -0.00000000
  13         0.05519209
  14        -0.04293605
  15         0.00000000
  16        -0.00000000
  17         0.00000000
  18         0.00000000
  19         0.35655679
  20        -0.00000000
  21         0.00000000
  22        -0.00000000
  23         0.00000000
  24         0.00643535
  25        -0.00000000
  26         0.00000000
  27        -0.00000000
  28        -0.00000000
  29        -0.00000000
  30         0.00000000
  31         0.53332565
  32         1.95149740
  33        -0.42561421
  34        -1.79202879
  35         0.00000000
  36        -0.00000000
  37         0.01583189
  38        -0.00000000
  39         0.00000000
  40        -0.00289659
  41         0.00000000
  42        -0.00000000
  43        -0.05519209
  44        -0.04293605
  45        -0.00000000
  46         0.00000000
  47        -0.00000000
  48         0.00000000
  49         0.35655679
  50         0.00000000
  51        -0.00000000
  52        -0.00000000
  53        -0.00000000
  54        -0.00643535
  55        -0.00000000
  56         0.00000000
  57        -0.00000000
  58         0.00000000
  59         0.00000000
  60         0.00000000
Sym=    18a  
Ene=     4.4334
Spin= Alpha
Occup=    0.00000
   1        -0.00000000
   2        -0.00000000
   3         0.00000000
   4        -0.00000000
   5         0.00624881
   6         0.00421798
   7         0.00000000
   8         0.01645273
   9         0.01110569
  10        -0.00000000
  11         0.03366415
  12         0.02272350
  13         0.00000000
  14         0.00000000
  15         0.07009218
  16         0.04731265
  17         0.00000000
  18        -0.00000000
  19        -0.00000000
  20        -0.56759732
  21        -0.38313161
  22        -0.00000000
  23         0.00000000
  24        -0.00000000
  25        -0.00779494
  26        -0.00526163
  27        -0.00000000
  28         0.00000000
  29        -0.00000000
  30         0.00000000
  31        -0.00000000
  32        -0.00000000
  33         0.00000000
  34         0.00000000
  35         0.00624881
  36         0.00421798
  37        -0.00000000
  38         0.01645273
  39         0.01110569
  40         0.00000000
  41         0.03366415
  42         0.02272350
  43        -0.00000000
  44         0.00000000
  45        -0.07009218
  46        -0.04731265
  47         0.00000000
  48        -0.00000000
  49        -0.00000000
  50         0.56759732
  51         0.38313161
  52        -0.00000000
  53         0.00000000
  54         0.00000000
  55        -0.00779494
  56        -0.00526163
  57         0.00000000
  58         0.00000000
  59         0.00000000
  60         0.00000000
Sym=    19a  
Ene=     4.4334
Spin= Alpha
Occup=    0.00000
   1        -0.00000000
   2        -0.00000000
   3         0.00000000
   4         0.00000000
   5        -0.00421798
   6         0.00624881
   7        -0.00000000
   8        -0.01110569