[Molden Format]
[N_Atoms]
                    2
[Atoms] (AU)
N1          1      7           0.00000000      0.00000000      0.00000000
N2          2      7           0.00000000      0.00000000      3.77945225
[5D]
[7F]
[Charge] (Mulliken)
   2.7156271032779955E-005
  -2.7156271127815046E-005
[GTO] (AU)
   1
   s  10
  1.142000000E+04  5.229996559E-04
  1.712000000E+03  4.044997339E-03
  3.893000000E+02  2.077498633E-02
  1.100000000E+02  8.072694689E-02
  3.557000000E+01  2.330738467E-01
  1.254000000E+01  4.335007148E-01
  4.644000000E+00  3.474717714E-01
  1.293000000E+00  4.126197285E-02
  5.118000000E-01 -8.507994403E-03
  1.787000000E-01  2.383998432E-03
   s  10
  1.142000000E+04 -1.149999544E-04
  1.712000000E+03 -8.949996452E-04
  3.893000000E+02 -4.623998167E-03
  1.100000000E+02 -1.852799265E-02
  3.557000000E+01 -5.733897727E-02
  1.254000000E+01 -1.320759476E-01
  4.644000000E+00 -1.725099316E-01
  1.293000000E+00  1.518139398E-01
  5.118000000E-01  5.999437621E-01
  1.787000000E-01  3.874618464E-01
   s   1
  1.293000000E+00  1.000000000E+00
   s   1
  1.787000000E-01  1.000000000E+00
   p   5
  2.663000000E+01  1.467000345E-02
  5.948000000E+00  9.176402155E-02
  1.742000000E+00  2.986830701E-01
  5.550000000E-01  4.984871171E-01
  1.725000000E-01  3.370230791E-01
   p   1
  5.550000000E-01  1.000000000E+00
   p   1
  1.725000000E-01  1.000000000E+00
   d   1
  1.654000000E+00  1.000000000E+00
   d   1
  4.690000000E-01  1.000000000E+00
   f   1
  1.093000000E+00  1.000000000E+00
 
   2
   s  10
  1.142000000E+04  5.229996559E-04
  1.712000000E+03  4.044997339E-03
  3.893000000E+02  2.077498633E-02
  1.100000000E+02  8.072694689E-02
  3.557000000E+01  2.330738467E-01
  1.254000000E+01  4.335007148E-01
  4.644000000E+00  3.474717714E-01
  1.293000000E+00  4.126197285E-02
  5.118000000E-01 -8.507994403E-03
  1.787000000E-01  2.383998432E-03
   s  10
  1.142000000E+04 -1.149999544E-04
  1.712000000E+03 -8.949996452E-04
  3.893000000E+02 -4.623998167E-03
  1.100000000E+02 -1.852799265E-02
  3.557000000E+01 -5.733897727E-02
  1.254000000E+01 -1.320759476E-01
  4.644000000E+00 -1.725099316E-01
  1.293000000E+00  1.518139398E-01
  5.118000000E-01  5.999437621E-01
  1.787000000E-01  3.874618464E-01
   s   1
  1.293000000E+00  1.000000000E+00
   s   1
  1.787000000E-01  1.000000000E+00
   p   5
  2.663000000E+01  1.467000345E-02
  5.948000000E+00  9.176402155E-02
  1.742000000E+00  2.986830701E-01
  5.550000000E-01  4.984871171E-01
  1.725000000E-01  3.370230791E-01
   p   1
  5.550000000E-01  1.000000000E+00
   p   1
  1.725000000E-01  1.000000000E+00
   d   1
  1.654000000E+00  1.000000000E+00
   d   1
  4.690000000E-01  1.000000000E+00
   f   1
  1.093000000E+00  1.000000000E+00
 
[MO]
Sym=     1a  
Ene=   -15.8270
Spin= Alpha
Occup=    2.00000
   1         0.70492556
   2         0.00029279
   3        -0.00118134
   4        -0.00019555
   5         0.00000000
   6         0.00000000
   7         0.00223807
   8        -0.00000000
   9        -0.00000000
  10        -0.00157622
  11         0.00000000
  12        -0.00000000
  13        -0.00046685
  14        -0.00005970
  15         0.00000000
  16        -0.00000000
  17         0.00000000
  18         0.00000000
  19         0.00020152
  20        -0.00000000
  21        -0.00000000
  22        -0.00000000
  23        -0.00000000
  24         0.00007598
  25         0.00000000
  26         0.00000000
  27         0.00000000
  28         0.00000000
  29         0.00000000
  30        -0.00000000
  31         0.71058094
  32         0.00030994
  33        -0.00119783
  34        -0.00020836
  35         0.00000000
  36         0.00000000
  37        -0.00225683
  38        -0.00000000
  39        -0.00000000
  40         0.00159068
  41        -0.00000000
  42        -0.00000000
  43         0.00047281
  44        -0.00005946
  45        -0.00000000
  46        -0.00000000
  47         0.00000000
  48        -0.00000000
  49         0.00019943
  50         0.00000000
  51        -0.00000000
  52         0.00000000
  53         0.00000000
  54        -0.00007517
  55        -0.00000000
  56        -0.00000000
  57        -0.00000000
  58         0.00000000
  59         0.00000000
  60         0.00000000
Sym=     2a  
Ene=   -15.8270
Spin= Alpha
Occup=    2.00000
   1        -0.71037462
   2         0.00034378
   3         0.00094594
   4        -0.00077876
   5         0.00000000
   6        -0.00000000
   7        -0.00230796
   8        -0.00000000
   9         0.00000000
  10         0.00183624
  11        -0.00000000
  12         0.00000000
  13         0.00008688
  14        -0.00002051
  15        -0.00000000
  16         0.00000000
  17        -0.00000000
  18         0.00000000
  19         0.00002725
  20         0.00000000
  21        -0.00000000
  22         0.00000001
  23        -0.00000000
  24         0.00006820
  25         0.00000000
  26        -0.00000000
  27        -0.00000000
  28         0.00000000
  29        -0.00000000
  30        -0.00000000
  31         0.70473103
  32        -0.00033174
  33        -0.00094408
  34         0.00077078
  35         0.00000000
  36         0.00000000
  37        -0.00229030
  38        -0.00000000
  39        -0.00000000
  40         0.00182355
  41        -0.00000000
  42        -0.00000000
  43         0.00008330
  44         0.00002068
  45        -0.00000000
  46         0.00000000
  47         0.00000000
  48        -0.00000000
  49        -0.00002899
  50         0.00000000
  51        -0.00000000
  52        -0.00000000
  53         0.00000000
  54         0.00006893
  55        -0.00000000
  56         0.00000000
  57        -0.00000000
  58         0.00000000
  59         0.00000000
  60        -0.00000000
Sym=     3a  
Ene=    -1.1044
Spin= Alpha
Occup=    2.00000
   1        -0.00069867
   2         0.69359191
   3         0.00580731
   4        -0.03820385
   5         0.00000000
   6        -0.00000000
   7         0.04202942
   8         0.00000000
   9         0.00000000
  10         0.00618337
  11        -0.00000000
  12         0.00000000
  13         0.00029133
  14         0.00145259
  15        -0.00000000
  16        -0.00000000
  17         0.00000000
  18         0.00000000
  19         0.00900635
  20         0.00000000
  21         0.00000000
  22        -0.00000013
  23        -0.00000000
  24         0.00175775
  25         0.00000000
  26         0.00000000
  27        -0.00000005
  28         0.00000000
  29        -0.00000000
  30         0.00000000
  31        -0.00069157
  32         0.69357379
  33         0.00579740
  34        -0.03822044
  35         0.00000000
  36        -0.00000000
  37        -0.04202655
  38        -0.00000000
  39         0.00000000
  40        -0.00618506
  41        -0.00000000
  42         0.00000000
  43        -0.00028575
  44         0.00145222
  45        -0.00000000
  46        -0.00000000
  47         0.00000002
  48         0.00000000
  49         0.00900467
  50        -0.00000000
  51        -0.00000000
  52        -0.00000008
  53        -0.00000000
  54        -0.00175782
  55        -0.00000000
  56        -0.00000000
  57         0.00000005
  58         0.00000000
  59         0.00000000
  60         0.00000000
Sym=     4a  
Ene=    -0.9748
Spin= Alpha
Occup=    2.00000
   1        -0.00338715
   2        -0.74896034
   3        -0.01009746
   4         0.03561496
   5        -0.00000000
   6         0.00000000
   7         0.10220807
   8        -0.00000000
   9        -0.00000000
  10        -0.00038389
  11        -0.00000000
  12        -0.00000000
  13        -0.00813821
  14         0.00139018
  15         0.00000000
  16         0.00000000
  17         0.00000005
  18         0.00000000
  19         0.00348121
  20        -0.00000000
  21        -0.00000000
  22        -0.00000012
  23         0.00000000
  24         0.00048988
  25         0.00000000
  26        -0.00000000
  27        -0.00000004
  28        -0.00000000
  29         0.00000000
  30         0.00000000
  31         0.00339400
  32         0.74900877
  33         0.01008782
  34        -0.03562780
  35        -0.00000000
  36        -0.00000000
  37         0.10219477
  38        -0.00000000
  39         0.00000000
  40        -0.00038381
  41        -0.00000000
  42         0.00000000
  43        -0.00813472
  44        -0.00139070
  45        -0.00000000
  46         0.00000000
  47        -0.00000005
  48         0.00000000
  49        -0.00348147
  50        -0.00000000
  51         0.00000000
  52         0.00000025
  53        -0.00000000
  54         0.00049011
  55        -0.00000000
  56        -0.00000000
  57        -0.00000005
  58         0.00000000
  59        -0.00000000
  60        -0.00000000
Sym=     5a  
Ene=    -0.4882
Spin= Alpha
Occup=    2.00000
   1         0.00331088
   2         0.13779758
   3         0.00795281
   4         0.01743763
   5        -0.00000000
   6        -0.00000000
   7        -0.62847594
   8        -0.00000000
   9         0.00000000
  10        -0.00118132
  11         0.00000000
  12         0.00000000
  13        -0.02181425
  14        -0.00477985
  15        -0.00000000
  16        -0.00000000
  17        -0.00000004
  18        -0.00000000
  19        -0.02182302
  20        -0.00000000
  21        -0.00000000
  22         0.00000018
  23         0.00000000
  24        -0.00244555
  25         0.00000000
  26        -0.00000000
  27         0.00000001
  28        -0.00000000
  29         0.00000000
  30         0.00000000
  31         0.00331819
  32         0.13785102
  33         0.00794940
  34         0.01739965
  35        -0.00000000
  36        -0.00000000
  37         0.62836559
  38        -0.00000000
  39         0.00000000
  40         0.00118246
  41         0.00000000
  42         0.00000000
  43         0.02186041
  44        -0.00477838
  45        -0.00000000
  46         0.00000000
  47        -0.00000004
  48         0.00000000
  49        -0.02183398
  50         0.00000000
  51         0.00000000
  52         0.00000021
  53        -0.00000000
  54         0.00244770
  55        -0.00000000
  56         0.00000000
  57        -0.00000005
  58        -0.00000000
  59         0.00000000
  60         0.00000000
Sym=     6a  
Ene=    -0.4103
Spin= Alpha
Occup=    2.00000
   1         0.00000000
   2         0.00000000
   3        -0.00000000
   4        -0.00000000
   5        -0.00000000
   6         0.62459765
   7        -0.00000000
   8         0.00000000
   9        -0.01435337
  10         0.00000000
  11        -0.00000000
  12         0.07698950
  13        -0.00000000
  14        -0.00000000
  15        -0.00000000
  16         0.00240286
  17        -0.00000000
  18         0.00000000
  19        -0.00000000
  20        -0.00000000
  21         0.02048871
  22        -0.00000000
  23        -0.00000000
  24        -0.00000000
  25        -0.00000000
  26         0.00223286
  27         0.00000000
  28        -0.00000000
  29        -0.00000000
  30         0.00000004
  31        -0.00000000
  32         0.00000000
  33         0.00000000
  34         0.00000000
  35        -0.00000000
  36         0.62464571
  37         0.00000000
  38         0.00000000
  39        -0.01436007
  40         0.00000000
  41        -0.00000000
  42         0.07698882
  43        -0.00000000
  44        -0.00000000
  45         0.00000000
  46        -0.00240380
  47        -0.00000000
  48         0.00000000
  49        -0.00000000
  50         0.00000000
  51        -0.02048601
  52        -0.00000000
  53        -0.00000000
  54        -0.00000000
  55        -0.00000000
  56         0.00223378
  57         0.00000000
  58         0.00000000
  59         0.00000000
  60        -0.00000001
Sym=     7a  
Ene=    -0.4103
Spin= Alpha
Occup=    2.00000
   1         0.00000000
   2        -0.00000000
   3         0.00000000
   4        -0.00000000
   5         0.62459083
   6         0.00000000
   7        -0.00000000
   8        -0.01435436
   9        -0.00000000
  10         0.00000000
  11         0.07699057
  12         0.00000000
  13        -0.00000000
  14        -0.00000000
  15         0.00240308
  16         0.00000000
  17        -0.00000000
  18         0.00000000
  19        -0.00000000
  20         0.02048755
  21         0.00000000
  22         0.00000000
  23         0.00000000
  24        -0.00000000
  25         0.00223266
  26         0.00000000
  27         0.00000000
  28         0.00000000
  29         0.00000002
  30         0.00000000
  31        -0.00000000
  32         0.00000000
  33         0.00000000
  34         0.00000000
  35         0.62465273
  36         0.00000000
  37        -0.00000000
  38        -0.01436141
  39        -0.00000000
  40         0.00000000
  41         0.07699026
  42         0.00000000
  43        -0.00000000
  44        -0.00000000
  45        -0.00240403
  46        -0.00000000
  47        -0.00000000
  48         0.00000000
  49         0.00000000
  50        -0.02048466
  51        -0.00000000
  52        -0.00000000
  53         0.00000000
  54        -0.00000000
  55         0.00223358
  56         0.00000000
  57        -0.00000000
  58        -0.00000000
  59        -0.00000002
  60        -0.00000000
Sym=     8a  
Ene=    -0.0934
Spin= Alpha
Occup=    0.00000
   1         0.00000000
   2        -0.00000000
   3        -0.00000000
   4        -0.00000000
   5         0.00000000
   6        -0.67759344
   7         0.00000000
   8        -0.00000000
   9         0.02326863
  10        -0.00000000
  11         0.00000000
  12        -0.11942931
  13        -0.00000000
  14         0.00000000
  15        -0.00000000
  16         0.00086243
  17         0.00000000
  18        -0.00000000
  19        -0.00000000
  20        -0.00000000
  21         0.01059507
  22         0.00000000
  23        -0.00000000
  24         0.00000000
  25        -0.00000000
  26         0.00148525
  27        -0.00000000
  28         0.00000000
  29         0.00000000
  30        -0.00000005
  31         0.00000000
  32         0.00000000
  33        -0.00000000
  34         0.00000000
  35        -0.00000000
  36         0.67757145
  37         0.00000000
  38         0.00000000
  39        -0.02327195
  40         0.00000000
  41        -0.00000000
  42         0.11941496
  43         0.00000000
  44        -0.00000000
  45        -0.00000000
  46         0.00086180
  47        -0.00000000
  48         0.00000000
  49        -0.00000000
  50        -0.00000000
  51         0.01059726
  52        -0.00000000
  53        -0.00000000
  54        -0.00000000
  55         0.00000000
  56        -0.00148430
  57         0.00000000
  58        -0.00000000
  59         0.00000000
  60        -0.00000003
Sym=     9a  
Ene=    -0.0934
Spin= Alpha
Occup=    0.00000
   1         0.00000000
   2         0.00000000
   3        -0.00000000
   4        -0.00000000
   5        -0.67759817
   6        -0.00000000
   7        -0.00000000
   8         0.02326757
   9         0.00000000
  10         0.00000000
  11        -0.11942971
  12        -0.00000000
  13        -0.00000000
  14         0.00000000
  15         0.00086250
  16         0.00000000
  17         0.00000000
  18        -0.00000000
  19        -0.00000000
  20         0.01059428
  21         0.00000000
  22        -0.00000000
  23        -0.00000000
  24         0.00000000
  25         0.00148510
  26         0.00000000
  27        -0.00000000
  28         0.00000000
  29        -0.00000004
  30        -0.00000000
  31        -0.00000000
  32        -0.00000000
  33         0.00000000
  34         0.00000000
  35         0.67756637
  36         0.00000000
  37        -0.00000000
  38        -0.02327011
  39        -0.00000000
  40         0.00000000
  41         0.11941132
  42         0.00000000
  43        -0.00000000
  44        -0.00000000
  45         0.00086197
  46         0.00000000
  47        -0.00000000
  48         0.00000000
  49         0.00000000
  50         0.01059662
  51         0.00000000
  52        -0.00000000
  53         0.00000000
  54         0.00000000
  55        -0.00148412
  56        -0.00000000
  57         0.00000000
  58         0.00000000
  59        -0.00000000
  60        -0.00000000
Sym=    10a  
Ene=     0.0258
Spin= Alpha
Occup=    0.00000
   1         0.00420355
   2         0.23002243
   3         0.00433085
   4         0.11606514
   5         0.00000000
   6         0.00000000
   7         0.72249280
   8         0.00000000
   9         0.00000000
  10        -0.03779659
  11         0.00000000
  12         0.00000000
  13         0.25564426
  14        -0.00592398
  15         0.00000000
  16         0.00000000
  17        -0.00000006
  18         0.00000000
  19        -0.01007745
  20         0.00000000
  21         0.00000000
  22         0.00000039
  23        -0.00000000
  24        -0.00186062
  25        -0.00000000
  26         0.00000000
  27         0.00000018
  28        -0.00000000
  29        -0.00000000
  30         0.00000000
  31        -0.00420964
  32        -0.23003484
  33        -0.00432432
  34        -0.11603182
  35         0.00000000
  36         0.00000000
  37         0.72253007
  38         0.00000000
  39        -0.00000000
  40        -0.03780685
  41         0.00000000
  42         0.00000000
  43         0.25570069
  44         0.00592366
  45        -0.00000000
  46         0.00000000
  47         0.00000009
  48         0.00000000
  49         0.01007592
  50        -0.00000000
  51         0.00000000
  52        -0.00000060
  53        -0.00000000
  54        -0.00185986
  55        -0.00000000
  56         0.00000000
  57         0.00000016
  58         0.00000000
  59         0.00000000
  60        -0.00000000
Sym=    11a  
Ene=     0.5681
Spin= Alpha
Occup=    0.00000
   1         0.07572919
   2         0.47919523
   3        -0.02717403
   4        -0.00873047
   5         0.00000000
   6         0.00000000
   7        -0.43255759
   8         0.00000000
   9         0.00000000
  10        -0.31935035
  11        -0.00000000
  12        -0.00000000
  13         1.41501591
  14        -0.02101614
  15        -0.00000000
  16        -0.00000000
  17         0.00000006
  18        -0.00000000
  19         0.12019589
  20        -0.00000000
  21        -0.00000000
  22        -0.00000040
  23         0.00000000
  24         0.01104046
  25        -0.00000000
  26        -0.00000000
  27         0.00000002
  28         0.00000000
  29        -0.00000000
  30        -0.00000000
  31        -0.07580266
  32        -0.47955350
  33         0.02719832
  34         0.00915637
  35         0.00000000
  36         0.00000000
  37        -0.43266811
  38         0.00000000
  39        -0.00000000
  40        -0.31953615
  41        -0.00000000
  42        -0.00000000
  43         1.41535133
  44         0.02101751
  45         0.00000000
  46        -0.00000000
  47         0.00000024
  48         0.00000000
  49        -0.12015851
  50         0.00000000
  51         0.00000000
  52        -0.00000162
  53        -0.00000000
  54         0.01103697
  55        -0.00000000
  56        -0.00000000
  57         0.00000026
  58        -0.00000000
  59         0.00000000
  60        -0.00000000
Sym=    12a  
Ene=     0.6008
Spin= Alpha
Occup=    0.00000
   1        -0.00000000
   2        -0.00000000
   3         0.00000000
   4         0.00000000
   5        -0.52600727
   6         0.00000000
   7        -0.00000000
   8        -0.33032313
   9         0.00000000
  10        -0.00000000
  11         0.91895269
  12        -0.00000000
  13         0.00000000
  14        -0.00000000
  15         0.00384321
  16        -0.00000000
  17         0.00000000
  18        -0.00000000
  19         0.00000000
  20        -0.00747565
  21         0.00000000
  22        -0.00000000
  23         0.00000000
  24         0.00000000
  25        -0.00364176
  26         0.00000000
  27        -0.00000000
  28         0.00000000
  29        -0.00000002
  30        -0.00000000
  31        -0.00000000
  32        -0.00000000
  33         0.00000000
  34         0.00000000
  35        -0.52599527
  36         0.00000000
  37        -0.00000000
  38        -0.33031252
  39         0.00000000
  40        -0.00000000
  41         0.91893486
  42        -0.00000000
  43         0.00000000
  44         0.00000000
  45        -0.00384194
  46         0.00000000
  47         0.00000000
  48        -0.00000000
  49        -0.00000000
  50         0.00747033
  51        -0.00000000
  52        -0.00000000
  53        -0.00000000
  54         0.00000000
  55        -0.00364216
  56         0.00000000
  57        -0.00000000
  58        -0.00000000
  59         0.00000004
  60         0.00000000
Sym=    13a  
Ene=     0.6008
Spin= Alpha
Occup=    0.00000
   1        -0.00000000
   2        -0.00000000
   3         0.00000000
   4         0.00000000
   5        -0.00000000
   6        -0.52600681
   7         0.00000000
   8        -0.00000000
   9        -0.33032496
  10         0.00000000
  11         0.00000000
  12         0.91895782
  13        -0.00000000
  14         0.00000000
  15         0.00000000
  16         0.00384364
  17         0.00000000
  18         0.00000000
  19        -0.00000000
  20        -0.00000000
  21        -0.00747982
  22        -0.00000000
  23        -0.00000000
  24         0.00000000
  25        -0.00000000
  26        -0.00364201
  27         0.00000000
  28         0.00000000
  29         0.00000000
  30         0.00000001
  31        -0.00000000
  32        -0.00000000
  33         0.00000000
  34         0.00000000
  35        -0.00000000
  36        -0.52599265
  37        -0.00000000
  38        -0.00000000
  39        -0.33031212
  40        -0.00000000
  41         0.00000000
  42         0.91893098
  43         0.00000000
  44         0.00000000
  45        -0.00000000
  46        -0.00384251
  47         0.00000000
  48         0.00000000
  49        -0.00000000
  50         0.00000000
  51         0.00747444
  52         0.00000000
  53        -0.00000000
  54         0.00000000
  55        -0.00000000
  56        -0.00364252
  57         0.00000000
  58        -0.00000000
  59        -0.00000000
  60         0.00000003
Sym=    14a  
Ene=     0.6228
Spin= Alpha
Occup=    0.00000
   1        -0.26299199
   2        -1.30843865
   3         0.06859119
   4         1.46098354
   5         0.00000000
   6         0.00000000
   7         0.23189011
   8        -0.00000000
   9         0.00000000
  10         0.25936948
  11         0.00000000
  12        -0.00000000
  13        -0.64316877
  14         0.00516175
  15         0.00000000
  16         0.00000000
  17         0.00000010
  18         0.00000000
  19         0.02099158
  20         0.00000000
  21        -0.00000000
  22        -0.00000093
  23        -0.00000000
  24         0.00000213
  25         0.00000000
  26         0.00000000
  27        -0.00000013
  28         0.00000000
  29         0.00000000
  30         0.00000000
  31        -0.26295704
  32        -1.30818598
  33         0.06860305
  34         1.46084378
  35         0.00000000
  36         0.00000000
  37        -0.23173783
  38         0.00000000
  39         0.00000000
  40        -0.25927870
  41        -0.00000000
  42        -0.00000000
  43         0.64270086
  44         0.00515664
  45        -0.00000000
  46        -0.00000000
  47         0.00000015
  48        -0.00000000
  49         0.02102059
  50        -0.00000000
  51         0.00000000
  52        -0.00000114
  53         0.00000000
  54        -0.00000600
  55         0.00000000
  56         0.00000000
  57         0.00000016
  58         0.00000000
  59        -0.00000000
  60         0.00000000
Sym=    15a  
Ene=     0.6764
Spin= Alpha
Occup=    0.00000
   1        -0.00000000
   2         0.00000000
   3        -0.00000000
   4        -0.00000000
   5         0.00000000
   6         0.47835080
   7         0.00000000
   8         0.00000000
   9         0.36683396
  10         0.00000000
  11        -0.00000000
  12        -1.18207863
  13        -0.00000000
  14         0.00000000
  15         0.00000000
  16         0.00462030
  17        -0.00000000
  18         0.00000000
  19        -0.00000000
  20         0.00000000
  21         0.03570288
  22        -0.00000000
  23         0.00000000
  24        -0.00000000
  25        -0.00000000
  26        -0.00330792
  27        -0.00000000
  28        -0.00000000
  29        -0.00000000
  30         0.00000004
  31        -0.00000000
  32        -0.00000000
  33         0.00000000
  34         0.00000000
  35        -0.00000000
  36        -0.47836773
  37         0.00000000
  38        -0.00000000
  39        -0.36683638
  40        -0.00000000
  41         0.00000000
  42         1.18210091
  43        -0.00000000
  44         0.00000000
  45         0.00000000
  46         0.00462199
  47         0.00000000
  48         0.00000000
  49         0.00000000
  50         0.00000000
  51         0.03568549
  52        -0.00000000
  53        -0.00000000
  54         0.00000000
  55         0.00000000
  56         0.00330775
  57         0.00000000
  58         0.00000000
  59        -0.00000000
  60        -0.00000001
Sym=    16a  
Ene=     0.6764
Spin= Alpha
Occup=    0.00000
   1        -0.00000000
   2        -0.00000000
   3         0.00000000
   4         0.00000000
   5         0.47835396
   6        -0.00000000
   7         0.00000000
   8         0.36683336
   9        -0.00000000
  10         0.00000000
  11        -1.18208229
  12         0.00000000
  13        -0.00000000
  14         0.00000000
  15         0.00462042
  16        -0.00000000
  17        -0.00000000
  18         0.00000000
  19         0.00000000
  20         0.03570254
  21        -0.00000000
  22         0.00000000
  23         0.00000000
  24         0.00000000
  25        -0.00330810
  26         0.00000000
  27        -0.00000000
  28         0.00000000
  29         0.00000003
  30         0.00000000
  31        -0.00000000
  32        -0.00000000
  33         0.00000000
  34         0.00000000
  35        -0.47836628
  36         0.00000000
  37        -0.00000000
  38        -0.36683331
  39         0.00000000
  40        -0.00000000
  41         1.18209819
  42        -0.00000000
  43         0.00000000
  44        -0.00000000
  45         0.00462207
  46        -0.00000000
  47         0.00000000
  48        -0.00000000
  49         0.00000000
  50         0.03568578
  51        -0.00000000
  52        -0.00000000
  53         0.00000000
  54        -0.00000000
  55         0.00330788
  56        -0.00000000
  57         0.00000000
  58         0.00000000
  59         0.00000003
  60         0.00000000
Sym=    17a  
Ene=     0.7213
Spin= Alpha
Occup=    0.00000
   1         0.21947001
   2         1.06330642
   3        -0.06828738
   4        -0.93210516
   5        -0.00000000
   6        -0.00000000
   7         0.31025721
   8        -0.00000000
   9        -0.00000000
  10         0.33802461
  11         0.00000000
  12         0.00000000
  13        -0.71094555
  14        -0.00679020
  15         0.00000000
  16         0.00000000
  17         0.00000006
  18        -0.00000000
  19         0.21820899
  20        -0.00000000
  21        -0.00000000
  22        -0.00000070
  23         0.00000000
  24         0.01262861
  25        -0.00000000
  26         0.00000000
  27         0.00000006
  28        -0.00000000
  29        -0.00000000
  30        -0.00000000
  31         0.21959635
  32         1.06382493
  33        -0.06834707
  34        -0.93274910
  35        -0.00000000
  36        -0.00000000
  37        -0.31019937
  38         0.00000000
  39        -0.00000000
  40        -0.33805348
  41        -0.00000000
  42         0.00000000
  43         0.71101776
  44        -0.00678700
  45         0.00000000
  46        -0.00000000
  47         0.00000001
  48         0.00000000
  49         0.21819893
  50         0.00000000
  51         0.00000000
  52        -0.00000055
  53        -0.00000000
  54        -0.01262489
  55        -0.00000000
  56         0.00000000
  57         0.00000001
  58        -0.00000000
  59         0.00000000
  60         0.00000000
Sym=    18a  
Ene=     0.9836
Spin= Alpha
Occup=    0.00000
   1        -0.38011420
   2        -1.73004847
   3         0.06063089
   4         2.59315676
   5         0.00000000
   6         0.00000000
   7        -0.14117680
   8         0.00000000
   9         0.00000000
  10        -0.16186182
  11        -0.00000000
  12        -0.00000000
  13         1.14239164
  14        -0.00978636
  15         0.00000000
  16        -0.00000000
  17         0.00000009
  18         0.00000000
  19        -0.14912317
  20        -0.00000000
  21        -0.00000000
  22        -0.00000144
  23        -0.00000000
  24         0.01187211
  25        -0.00000000
  26        -0.00000000
  27         0.00000002
  28        -0.00000000
  29         0.00000000
  30         0.00000000
  31         0.38012503
  32         1.73001179
  33        -0.06067367
  34        -2.59311419
  35         0.00000000
  36         0.00000000
  37        -0.14108205
  38        -0.00000000
  39        -0.00000000
  40        -0.16184197
  41        -0.00000000
  42         0.00000000
  43         1.14224302
  44         0.00978675
  45         0.00000000
  46        -0.00000000
  47         0.00000015
  48         0.00000000
  49         0.14905543
  50         0.00000000
  51         0.00000000
  52        -0.00000262
  53        -0.00000000
  54         0.01187411
  55        -0.00000000
  56         0.00000000
  57         0.00000023
  58         0.00000000
  59         0.00000000
  60        -0.00000000
Sym=    19a  
Ene=     1.0646
Spin= Alpha
Occup=    0.00000
   1         0.00000000
   2         0.00000000
   3        -0.00000000
   4        -0.00000000
   5        -0.00000000
   6         0.06287169
   7         0.00000000
   8         0.00000000