   This run of MOLCAS is using the pymolcas driver

                             OPE
                             OPE          NMOL  CASOP  ENMOLC A   SO
                 OPE        NMOLC        AS  OP EN  MO LC     AS  OP
                OPENM       OL CA        SO  PE NM  OL CA     SOP EN
                OP EN      MO   LC       AS  OP ENMOL  CASO   PENMOL
                OP  EN     MO   LC       AS  OP EN     MO     LC ASO
               OP   E  NMOL  C  AS       OP  EN MO     LC     AS  OP
               OP  E   NMO   LC AS        OPEN  MO     LCASOP EN   M
               O  PEN   MO  LCA  SO
            OPE   NMO   L   CAS    OP
        OPENMOL  CASOP     ENMOL   CASOPE
     OPENMOLCA   SOPENMOLCASOPEN   MOLCASOPE
    OPENMOLCAS   OP           EN   MOL    CAS
    OPENMOLCAS       OP  ENM        O     LCA
    OPENMOLCAS    OPEN  MOLCASO     P  E  NMO
    OPENMOLCAS     OP               E  N  MOL
    OPENMOLCA   SO           PENM   O  L  CAS    OPEN    MO    LCAS
    OPENMOLCA   SOP           ENM   O  L  CAS   OP  EN  MOLC  AS   O
    OPENMOLCA   SOPE           NM      O  LCA   S      OP  EN MO
    OPENMOLC                AS         O  PEN   M      OL  CA  SOPE
    OPENMO        LCASOPE  NMOL        C  ASO   P      ENMOLC     AS
    OPE     NMO      LCA  SO     P     E   NM   OL  CA SO  PE N   MO
          OPENMOLCA            SOPE   NMO        LCAS  O    P  ENMO
     OPENMOLCASOPENMOLCASOPENMOLCASOPENMOLCA
        OPENMOLCASOPENMOLCASOPENMOLCASOPE
            OPENMOLCASOPENMOLCASOPENM
               OPENMOLCASOPENMOLCA        version: o822a959167d23c ?
                   OPENMOLCASO
                       OPE                tag:

 OpenMolcas is free software; you can redistribute it and/or modify it
 under the terms of the GNU Lesser General Public License version 2.1.
 OpenMolcas is distributed in the hope that it will be useful, but it
 is provided "as is" and without any express or implied warranties.
 For more details see the full text of the license in the file
 LICENSE or in <http://www.gnu.org/licenses/>.

                 Copyright (C) The OpenMolcas Authors
           For the author list and the recommended citation,
                   consult the file CONTRIBUTORS.md

           *************************************************
           * pymolcas version py2.28                       *
           *   build c4a6d18ded8cb6cad61d2372a9abd97c      *
           *   (after the EMIL interpreter by V. Veryazov) *
           *************************************************

configuration info
------------------
Host name: mgt (Linux)
C Compiler ID: GNU
C flags: -std=gnu99
Fortran Compiler ID: GNU
Fortran flags: -fno-aggressive-loop-optimizations -cpp -fdefault-integer-8 -fmax-stack-var-size=1048576
Definitions: _MOLCAS_;_I8_;_LINUX_
Parallel: OFF (GA=OFF)


   -------------------------------------------------------------------------------------------------------
  |
  |           Project: n2
  |    Submitted from: /public/home/xzzeng/work/HQC/N2/cc-pvtz/NO/PES/entropy/4.0/results/work_dir/n2/dmrg
  |      Scratch area: /public/home/xzzeng/work/HQC/N2/cc-pvtz/NO/PES/entropy/4.0/results/scratch
  |   Save outputs to: /public/home/xzzeng/work/HQC/N2/cc-pvtz/NO/PES/entropy/4.0/results/work_dir/n2/dmrg
  |            Molcas: /public/home/xzzeng/soft/OpenMolcas/build
  |
  | Scratch area is NOT empty
  |
  |    MOLCAS_DRIVER = /public/home/xzzeng/soft/OpenMolcas/build/pymolcas
  |    MOLCAS_NPROCS = 1
  |    MOLCAS_SOURCE = /public/home/xzzeng/soft/OpenMolcas
  | MOLCAS_STRUCTURE = 0
  |
   -------------------------------------------------------------------------------------------------------

++ ---------   Input file   ---------

&DMRGSCF
ActiveSpaceOptimizer = QCMaquis
DMRGSettings
  nsweeps = 5
  max_bond_dimension = 300
EndDMRGSettings
OOptimizationSettings
  SPIN    = 1
  NACTEL  = 10
  FILEORB = /public/home/xzzeng/work/HQC/N2/cc-pvtz/NO/PES/entropy/4.0/results/work_dir/n2/dmrg/n2.scf.h5_sel
  TYPEINDEX
  CIONLY
EndOOptimizationSettings

-- ----------------------------------

*** symbolic link created: INPORB -> n2.ScfOrb
--- Start Module: dmrgscf at Tue Apr  9 00:43:28 2024 ---

()()()()()()()()()()()()()()()()()()()()()()()()()()()()()()()()()()()()()()()()()()()()()()()()()()

                                              &DMRGSCF

                                   only a single process is used
                       available to each process: 12 GB of memory, 1 thread?
                                             pid: 63546
()()()()()()()()()()()()()()()()()()()()()()()()()()()()()()()()()()()()()()()()()()()()()()()()()()


      DMRGSCF: active space solver is set to qcmaquis
      -------                                --------


      Header of the ONEINT file:
      --------------------------
      
      Integrals generated by Gateway/Seward, Tue Apr  9 00:43:26 2024


      OrdInt status: non-squared


      Cartesian coordinates in Angstrom:
      -----------------------------------------------------
      No.  Label        X            Y            Z        
      -----------------------------------------------------
       1   N1         0.00000000   0.00000000   0.00000000
       2   N2         0.00000000   0.00000000   4.00000000
      -----------------------------------------------------
      Nuclear repulsion energy =    6.48242083

++    Wave function specifications:
      -----------------------------

      Number of closed shell electrons           4
      Number of electrons in active shells      10
      Max number of holes in RAS1 space          0
      Max nr of electrons in RAS3 space          0
      Number of inactive orbitals                2
      Number of active orbitals                  8
      Number of secondary orbitals              50
      Spin quantum number                      0.0
      State symmetry                             1
--

++    Orbital specifications:
      -----------------------

      Symmetry species                           1
                                                 a
      Frozen orbitals                            0
      Inactive orbitals                          2
      Active orbitals                            8
      RAS1 orbitals                              0
      RAS2 orbitals                              8
      RAS3 orbitals                              0
      Secondary orbitals                        50
      Deleted orbitals                           0
      Number of basis functions                 60
--

++    DMRG specifications:
      ----------------------------

      Number of renormalized states              300
      (Max) number of sweeps                     5
      Convergence threshold (sweep tolerance)    0.100E-07
      Jacobi-Davidson threshold                  0.100E-10
      SVD truncation threshold (initial)         1e-50
      SVD truncation threshold (final)           0.100E-10
      Number of root(s) required                 1
      Root chosen for geometry opt.              1
      DMRG root used                             1
         
--

++    Optimization specifications:
      ----------------------------

      RASSCF algorithm: LK Cholesky
      Maximum number of macro iterations       200
      Maximum number of SX iterations          100
      Threshold for RASSCF energy            1.000E-08
      Threshold for max MO rotation          1.000E-01
      Threshold for max BLB element          1.000E-04
      Level shift parameter                  5.000E-01
      Make Quasi-Newton update
--

      The MO-coefficients are taken from the file:
      /public/home/xzzeng/work/HQC/N2/cc-pvtz/NO/PES/entropy/4.0/results/work_dir/n2/dmrg/n2.scf.h5_sel                                                                                                                                                               

      Total molecular charge    0.00

      ************************************************************************************************************************
      *                                                                                                                      *
      *                                            Wave function control section                                             *
      *                                                                                                                      *
      ************************************************************************************************************************


                                         DMRGCI only, no orbital optimization will be done.
                                         --------------------------------------------------

                                             Please cite for the QCMaquis-Molcas driver:

                                    Freitag L.; Keller S.; Knecht S.; Lindh R.; Ma Y.; 
                                    Stein C. J. and Reiher M., in preparation. (2018).
                                    ---------------------------------------------------------------

                                             Please cite for the QCMaquis DMRG software:

                                    S. Keller, M. Dolfi, M. Troyer, M. Reiher,
                                    J. Chem. Phys. 143, 244118 (2015)
                                    ---------------------------------------------------------------



      DMRGCI energy              :    -108.7424850900
      Total time spent (hh:mm:ss):            0:00:04


      Natural orbitals and occupation numbers for root  1
      sym 1:   1.999988   1.999954   1.031317   1.004192   1.004192   0.995815   0.995815   0.968727

      ************************************************************************************************************************
      *                                                                                                                      *
      *                                                    Final results                                                     *
      *                                                                                                                      *
      ************************************************************************************************************************


++    Wave function specifications:
      -----------------------------

      Number of closed shell electrons           4
      Number of electrons in active shells      10
      Max number of holes in RAS1 space          0
      Max nr of electrons in RAS3 space          0
      Number of inactive orbitals                2
      Number of active orbitals                  8
      Number of secondary orbitals              50
      Spin quantum number                      0.0
      State symmetry                             1
--

++    Orbital specifications:
      -----------------------

      Symmetry species                           1
                                                 a
      Frozen orbitals                            0
      Inactive orbitals                          2
      Active orbitals                            8
      RAS1 orbitals                              0
      RAS2 orbitals                              8
      RAS3 orbitals                              0
      Secondary orbitals                        50
      Deleted orbitals                           0
      Number of basis functions                 60
--

++    DMRG specifications:
      ----------------------------

      Number of renormalized states              300
      (Max) number of sweeps                     5
      Convergence threshold (sweep tolerance)    0.100E-07
      Jacobi-Davidson threshold                  0.100E-10
      SVD truncation threshold (initial)         1e-50
      SVD truncation threshold (final)           0.100E-10
      Number of root(s) required                 1
      DMRG root used                             1
      highest root included in the DMRG          1
      Root passed to geometry opt.               1
--

++    Final optimization conditions:
      ------------------------------

      Average CI energy                            -108.74248509
--


      Final state energy(ies):
      ------------------------

::    RASSCF root number  1 Total energy:   -108.74248509

++    Molecular orbitals:
      -------------------

      Pseudonatural active orbitals and approximate occupation numbers




      Molecular orbitals for symmetry species 1: a  


      Orbital                 1         2         3         4         5         6         7         8         9        10
      Energy             0.0000    0.0000    0.0000    0.0000    0.0000    0.0000    0.0000    0.0000    0.0000    0.0000
      Occ. No.           0.0000    0.0000    0.0000    0.0000    0.0000    0.0000    0.0000    0.0000    0.0000    0.0000

     1 N1     1s         0.5886   -0.8094    0.0008   -0.0023    0.0066    0.0000   -0.0000   -0.0000    0.0000    0.0043
     2 N1     2s         0.0002   -0.0002    0.7274   -0.7351    0.0369    0.0000   -0.0000   -0.0000    0.0000    0.0351
     3 N1     *s        -0.0008    0.0011    0.0082   -0.0075   -0.0024   -0.0000    0.0000    0.0000   -0.0000   -0.0019
     4 N1     *s        -0.0001    0.0001   -0.0293    0.0366   -0.0321   -0.0000    0.0000    0.0000   -0.0000   -0.0196
     5 N1     2px        0.0000    0.0000    0.0000    0.0000   -0.0000    0.0068    0.6493   -0.0069   -0.6507   -0.0000
     6 N1     *px       -0.0000    0.0000   -0.0000   -0.0000    0.0000   -0.0002   -0.0184    0.0002    0.0170   -0.0000
     7 N1     *px        0.0000    0.0000    0.0000    0.0000   -0.0000    0.0010    0.0955   -0.0010   -0.0937    0.0000
     8 N1     2py       -0.0000    0.0000    0.0000    0.0000    0.0000    0.6493   -0.0068   -0.6507    0.0069    0.0000
     9 N1     *py        0.0000   -0.0000   -0.0000    0.0000   -0.0000   -0.0184    0.0002    0.0170   -0.0002    0.0000
    10 N1     *py        0.0000   -0.0000    0.0000    0.0000   -0.0000    0.0955   -0.0010   -0.0937    0.0010   -0.0000
    11 N1     2pz        0.0003   -0.0004    0.0015    0.0130   -0.6368   -0.0000    0.0000   -0.0000    0.0000    0.6554
    12 N1     *pz       -0.0002    0.0003   -0.0007   -0.0006    0.0240    0.0000   -0.0000   -0.0000    0.0000   -0.0141
    13 N1     *pz       -0.0001    0.0001    0.0032    0.0014   -0.1108   -0.0000    0.0000    0.0000   -0.0000    0.0898
    14 N1     *d2-       0.0000   -0.0000    0.0000   -0.0000   -0.0000   -0.0000   -0.0000   -0.0000   -0.0000    0.0000
    15 N1     *d2-       0.0000   -0.0000    0.0000   -0.0000    0.0000   -0.0000   -0.0000   -0.0000   -0.0000   -0.0000
    16 N1     *d1-      -0.0000    0.0000   -0.0000    0.0000    0.0000    0.0002   -0.0000   -0.0003    0.0000    0.0000
    17 N1     *d1-      -0.0000    0.0000   -0.0000    0.0000    0.0000    0.0034   -0.0000    0.0033   -0.0000    0.0000
    18 N1     *d0       -0.0000    0.0000   -0.0001    0.0000    0.0000    0.0000   -0.0000   -0.0000    0.0000    0.0006
    19 N1     *d0       -0.0000    0.0000    0.0005    0.0006   -0.0063    0.0000   -0.0000    0.0000   -0.0000   -0.0052
    20 N1     *d1+       0.0000    0.0000    0.0000   -0.0000   -0.0000    0.0000    0.0002   -0.0000   -0.0003    0.0000
    21 N1     *d1+       0.0000   -0.0000    0.0000   -0.0000   -0.0000    0.0000    0.0034    0.0000    0.0033    0.0000
    22 N1     *d2+      -0.0000    0.0000   -0.0000    0.0000    0.0000    0.0000   -0.0000    0.0000   -0.0000   -0.0000
    23 N1     *d2+      -0.0000    0.0000   -0.0000    0.0000   -0.0000    0.0000   -0.0000    0.0000   -0.0000    0.0000
    24 N1     *f3-       0.0000    0.0000    0.0000   -0.0000   -0.0000    0.0000   -0.0000    0.0000   -0.0000   -0.0000
    25 N1     *f2-      -0.0000    0.0000   -0.0000   -0.0000    0.0000    0.0000    0.0000    0.0000    0.0000    0.0000
    26 N1     *f1-      -0.0000   -0.0000   -0.0000    0.0000   -0.0000    0.0002   -0.0000    0.0001   -0.0000   -0.0000
    27 N1     *f0        0.0000   -0.0000    0.0000    0.0000   -0.0003   -0.0000    0.0000   -0.0000    0.0000   -0.0002
    28 N1     *f1+      -0.0000   -0.0000    0.0000    0.0000    0.0000    0.0000    0.0002    0.0000    0.0001    0.0000
    29 N1     *f2+       0.0000   -0.0000    0.0000   -0.0000   -0.0000   -0.0000    0.0000   -0.0000    0.0000   -0.0000
    30 N1     *f3+       0.0000   -0.0000    0.0000   -0.0000   -0.0000    0.0000    0.0000    0.0000    0.0000    0.0000
    31 N2     1s         0.8094    0.5885    0.0008    0.0023    0.0066    0.0000   -0.0000   -0.0000    0.0000   -0.0043
    32 N2     2s         0.0003    0.0002    0.7276    0.7349    0.0369   -0.0000   -0.0000   -0.0000    0.0000   -0.0351
    33 N2     *s        -0.0011   -0.0008    0.0081    0.0075   -0.0024   -0.0000    0.0000    0.0000   -0.0000    0.0019
    34 N2     *s        -0.0002   -0.0001   -0.0293   -0.0366   -0.0321   -0.0000    0.0000    0.0000   -0.0000    0.0196
    35 N2     2px        0.0000    0.0000    0.0000    0.0000    0.0000    0.0068    0.6493    0.0069    0.6507   -0.0000
    36 N2     *px       -0.0000   -0.0000   -0.0000   -0.0000    0.0000   -0.0002   -0.0184   -0.0002   -0.0170   -0.0000
    37 N2     *px        0.0000    0.0000    0.0000    0.0000   -0.0000    0.0010    0.0955    0.0010    0.0937    0.0000
    38 N2     2py       -0.0000   -0.0000    0.0000    0.0000   -0.0000    0.6493   -0.0068    0.6507   -0.0069    0.0000
    39 N2     *py        0.0000    0.0000   -0.0000   -0.0000    0.0000   -0.0184    0.0002   -0.0170    0.0002    0.0000
    40 N2     *py        0.0000    0.0000    0.0000    0.0000   -0.0000    0.0955   -0.0010    0.0937   -0.0010   -0.0000
    41 N2     2pz       -0.0004   -0.0003   -0.0015    0.0130    0.6368   -0.0000    0.0000    0.0000   -0.0000    0.6553
    42 N2     *pz        0.0003    0.0003    0.0007   -0.0006   -0.0240   -0.0000    0.0000    0.0000   -0.0000   -0.0141
    43 N2     *pz        0.0001    0.0000   -0.0032    0.0014    0.1108    0.0000   -0.0000   -0.0000    0.0000    0.0898
    44 N2     *d2-      -0.0000   -0.0000   -0.0000   -0.0000    0.0000   -0.0000   -0.0000    0.0000    0.0000    0.0000
    45 N2     *d2-      -0.0000   -0.0000   -0.0000   -0.0000   -0.0000   -0.0000   -0.0000    0.0000    0.0000   -0.0000
    46 N2     *d1-      -0.0000   -0.0000   -0.0000   -0.0000   -0.0000   -0.0002    0.0000   -0.0003    0.0000    0.0000
    47 N2     *d1-      -0.0000   -0.0000   -0.0000   -0.0000   -0.0000   -0.0034    0.0000    0.0033   -0.0000    0.0000
    48 N2     *d0       -0.0000   -0.0000   -0.0001   -0.0000    0.0000    0.0000   -0.0000   -0.0000    0.0000   -0.0006
    49 N2     *d0       -0.0000   -0.0000    0.0005   -0.0006   -0.0063   -0.0000    0.0000    0.0000   -0.0000    0.0052
    50 N2     *d1+       0.0000    0.0000    0.0000    0.0000   -0.0000   -0.0000   -0.0002   -0.0000   -0.0003    0.0000
    51 N2     *d1+       0.0000    0.0000    0.0000    0.0000    0.0000   -0.0000   -0.0034    0.0000    0.0033    0.0000
    52 N2     *d2+       0.0000    0.0000    0.0000    0.0000   -0.0000    0.0000   -0.0000   -0.0000    0.0000   -0.0000
    53 N2     *d2+       0.0000    0.0000    0.0000    0.0000   -0.0000    0.0000   -0.0000   -0.0000    0.0000    0.0000
    54 N2     *f3-      -0.0000   -0.0000    0.0000    0.0000   -0.0000   -0.0000    0.0000    0.0000   -0.0000    0.0000
    55 N2     *f2-      -0.0000   -0.0000    0.0000    0.0000    0.0000    0.0000    0.0000   -0.0000   -0.0000   -0.0000
    56 N2     *f1-       0.0000    0.0000    0.0000    0.0000    0.0000    0.0002   -0.0000   -0.0001    0.0000   -0.0000
    57 N2     *f0       -0.0000   -0.0000   -0.0000    0.0000    0.0003   -0.0000    0.0000    0.0000   -0.0000   -0.0002
    58 N2     *f1+       0.0000    0.0000    0.0000    0.0000   -0.0000    0.0000    0.0002   -0.0000   -0.0001    0.0000
    59 N2     *f2+      -0.0000   -0.0000   -0.0000   -0.0000   -0.0000   -0.0000    0.0000    0.0000   -0.0000    0.0000
    60 N2     *f3+       0.0000   -0.0000    0.0000    0.0000   -0.0000    0.0000    0.0000    0.0000    0.0000    0.0000


      Orbital                11        12        13        14        15        16        17        18        19        20
      Energy             0.0000    0.0000    0.0000    0.0000    0.0000    0.0000    0.0000    0.0000    0.0000    0.0000
      Occ. No.           0.0000    0.0000    0.0000    0.0000    0.0000    0.0000    0.0000    0.0000    0.0000    0.0000

     1 N1     1s         0.1092    0.0000    0.0000   -0.0000   -0.0000    0.2456   -0.3369   -0.2520    0.0034    0.0000
     2 N1     2s         0.5252    0.0000    0.0000   -0.0000   -0.0000    1.1883   -1.6324   -1.2366    0.0211    0.0000
     3 N1     *s        -0.0363   -0.0000   -0.0000    0.0000    0.0000   -0.0707    0.0950    0.0608    0.0014   -0.0000
     4 N1     *s        -0.5507   -0.0000   -0.0000    0.0000    0.0000   -1.2765    1.7580    1.3505   -0.0255   -0.0000
     5 N1     2px       -0.0000   -0.0027    0.4946    0.0026   -0.5006   -0.0000    0.0000   -0.0000   -0.0000   -0.0000
     6 N1     *px       -0.0000   -0.0019    0.3486    0.0018   -0.3452   -0.0000    0.0000   -0.0000   -0.0000    0.0000
     7 N1     *px        0.0000    0.0055   -1.0111   -0.0054    1.0233    0.0000   -0.0000    0.0000    0.0000    0.0000
     8 N1     2py        0.0000   -0.4946   -0.0027    0.5006    0.0026    0.0000   -0.0000    0.0000    0.0000   -0.0024
     9 N1     *py        0.0000   -0.3486   -0.0019    0.3452    0.0018    0.0000   -0.0000    0.0000    0.0000    0.0005
    10 N1     *py       -0.0000    1.0111    0.0055   -1.0233   -0.0054   -0.0000    0.0000   -0.0000   -0.0000    0.0072
    11 N1     2pz        0.4697   -0.0000   -0.0000   -0.0000   -0.0000   -0.3626    0.1558   -0.3689    0.0247   -0.0000
    12 N1     *pz        0.3324   -0.0000   -0.0000   -0.0000   -0.0000   -0.2498    0.1042   -0.2291   -0.0009   -0.0000
    13 N1     *pz       -0.9146    0.0000    0.0000    0.0000    0.0000    0.7488   -0.3255    0.7628   -0.0398    0.0000
    14 N1     *d2-       0.0000   -0.0000    0.0000    0.0000   -0.0000    0.0000   -0.0000   -0.0000    0.0000    0.0000
    15 N1     *d2-      -0.0000    0.0000   -0.0000   -0.0000    0.0000   -0.0000    0.0000    0.0000   -0.0000   -0.0000
    16 N1     *d1-      -0.0000   -0.0005   -0.0000   -0.0003   -0.0000   -0.0000    0.0000    0.0000    0.0000    0.0132
    17 N1     *d1-       0.0000    0.0032    0.0000    0.0048    0.0000    0.0000   -0.0000   -0.0000   -0.0000   -0.7137
    18 N1     *d0        0.0020    0.0000    0.0000   -0.0000   -0.0000    0.0008   -0.0002    0.0025   -0.0133   -0.0000
    19 N1     *d0       -0.0201   -0.0000   -0.0000    0.0000    0.0000   -0.0117    0.0027   -0.0333    0.7135    0.0000
    20 N1     *d1+       0.0000   -0.0000    0.0005   -0.0000    0.0003    0.0000   -0.0000   -0.0000   -0.0000    0.0000
    21 N1     *d1+      -0.0000    0.0000   -0.0032    0.0000   -0.0048   -0.0000    0.0000    0.0000    0.0000   -0.0000
    22 N1     *d2+      -0.0000    0.0000    0.0000   -0.0000   -0.0000   -0.0000    0.0000    0.0000   -0.0000    0.0000
    23 N1     *d2+       0.0000   -0.0000   -0.0000    0.0000    0.0000    0.0000   -0.0000   -0.0000    0.0000   -0.0000
    24 N1     *f3-       0.0000   -0.0000    0.0000    0.0000    0.0000    0.0000   -0.0000   -0.0000    0.0000   -0.0000
    25 N1     *f2-       0.0000    0.0000   -0.0000   -0.0000    0.0000   -0.0000    0.0000   -0.0000   -0.0000   -0.0000
    26 N1     *f1-      -0.0000    0.0001    0.0000    0.0001    0.0000    0.0000   -0.0000    0.0000    0.0000   -0.0002
    27 N1     *f0       -0.0005   -0.0000   -0.0000    0.0000    0.0000   -0.0003    0.0000   -0.0007    0.0002    0.0000
    28 N1     *f1+       0.0000    0.0000   -0.0001    0.0000   -0.0001   -0.0000    0.0000   -0.0000    0.0000   -0.0000
    29 N1     *f2+      -0.0000   -0.0000   -0.0000    0.0000    0.0000    0.0000   -0.0000    0.0000    0.0000    0.0000
    30 N1     *f3+       0.0000    0.0000   -0.0000   -0.0000    0.0000   -0.0000    0.0000   -0.0000   -0.0000   -0.0000
    31 N2     1s         0.1092   -0.0000   -0.0000   -0.0000   -0.0000   -0.2460   -0.3367    0.2519    0.0034   -0.0000
    32 N2     2s         0.5254   -0.0000   -0.0000   -0.0000   -0.0000   -1.1903   -1.6313    1.2362    0.0211   -0.0000
    33 N2     *s        -0.0363    0.0000    0.0000    0.0000    0.0000    0.0708    0.0950   -0.0608    0.0014    0.0000
    34 N2     *s        -0.5509    0.0000    0.0000    0.0000    0.0000    1.2787    1.7568   -1.3501   -0.0255    0.0000
    35 N2     2px        0.0000   -0.0027    0.4947   -0.0026    0.5006   -0.0000   -0.0000   -0.0000    0.0000   -0.0000
    36 N2     *px        0.0000   -0.0019    0.3486   -0.0018    0.3451   -0.0000   -0.0000   -0.0000    0.0000    0.0000
    37 N2     *px       -0.0000    0.0055   -1.0113    0.0054   -1.0231    0.0000    0.0000    0.0000   -0.0000    0.0000
    38 N2     2py       -0.0000   -0.4947   -0.0027   -0.5006   -0.0026    0.0000    0.0000    0.0000   -0.0000   -0.0024
    39 N2     *py       -0.0000   -0.3486   -0.0019   -0.3451   -0.0018    0.0000    0.0000    0.0000   -0.0000    0.0005
    40 N2     *py        0.0000    1.0113    0.0055    1.0231    0.0054   -0.0000   -0.0000   -0.0000    0.0000    0.0072
    41 N2     2pz       -0.4697   -0.0000   -0.0000    0.0000    0.0000   -0.3628   -0.1553   -0.3689   -0.0247   -0.0000
    42 N2     *pz       -0.3324   -0.0000   -0.0000    0.0000    0.0000   -0.2500   -0.1038   -0.2292    0.0009   -0.0000
    43 N2     *pz        0.9146    0.0000    0.0000   -0.0000   -0.0000    0.7493    0.3243    0.7628    0.0398    0.0000
    44 N2     *d2-      -0.0000   -0.0000    0.0000   -0.0000    0.0000    0.0000    0.0000   -0.0000   -0.0000   -0.0000
    45 N2     *d2-       0.0000   -0.0000    0.0000   -0.0000    0.0000   -0.0000   -0.0000    0.0000    0.0000    0.0000
    46 N2     *d1-      -0.0000    0.0005    0.0000   -0.0003   -0.0000    0.0000    0.0000   -0.0000    0.0000   -0.0132
    47 N2     *d1-       0.0000   -0.0032   -0.0000    0.0048    0.0000   -0.0000   -0.0000    0.0000   -0.0000    0.7140
    48 N2     *d0        0.0020   -0.0000   -0.0000   -0.0000   -0.0000   -0.0008   -0.0002   -0.0025   -0.0133    0.0000
    49 N2     *d0       -0.0201    0.0000    0.0000    0.0000    0.0000    0.0117    0.0027    0.0333    0.7136   -0.0000
    50 N2     *d1+       0.0000    0.0000   -0.0005   -0.0000    0.0003   -0.0000   -0.0000    0.0000   -0.0000   -0.0000
    51 N2     *d1+      -0.0000   -0.0000    0.0032    0.0000   -0.0048    0.0000    0.0000   -0.0000    0.0000    0.0000
    52 N2     *d2+       0.0000    0.0000    0.0000    0.0000    0.0000   -0.0000   -0.0000    0.0000    0.0000   -0.0000
    53 N2     *d2+      -0.0000    0.0000    0.0000    0.0000    0.0000    0.0000    0.0000   -0.0000   -0.0000    0.0000
    54 N2     *f3-      -0.0000   -0.0000   -0.0000   -0.0000   -0.0000   -0.0000   -0.0000   -0.0000   -0.0000   -0.0000
    55 N2     *f2-       0.0000    0.0000   -0.0000    0.0000   -0.0000    0.0000    0.0000    0.0000   -0.0000   -0.0000
    56 N2     *f1-       0.0000    0.0001    0.0000   -0.0001   -0.0000    0.0000    0.0000    0.0000    0.0000   -0.0002
    57 N2     *f0        0.0005   -0.0000   -0.0000   -0.0000   -0.0000   -0.0003   -0.0000   -0.0007   -0.0002   -0.0000
    58 N2     *f1+      -0.0000    0.0000   -0.0001   -0.0000    0.0001   -0.0000   -0.0000   -0.0000    0.0000   -0.0000
    59 N2     *f2+      -0.0000   -0.0000   -0.0000   -0.0000   -0.0000   -0.0000    0.0000   -0.0000   -0.0000   -0.0000
    60 N2     *f3+      -0.0000   -0.0000    0.0000   -0.0000    0.0000   -0.0000   -0.0000   -0.0000    0.0000    0.0000


      Orbital                21        22        23        24        25        26        27        28        29        30
      Energy             0.0000    0.0000    0.0000    0.0000    0.0000    0.0000    0.0000    0.0000    0.0000    0.0000
      Occ. No.           0.0000    0.0000    0.0000    0.0000    0.0000    0.0000    0.0000    0.0000    0.0000    0.0000

     1 N1     1s        -0.0000   -0.0000    0.0000    0.0000   -0.0000   -0.0000    0.0000    0.0060   -0.0117    0.0000
     2 N1     2s        -0.0000   -0.0000    0.0000    0.0000   -0.0000   -0.0000    0.0000    0.0366   -0.0090    0.0000
     3 N1     *s         0.0000    0.0000   -0.0000   -0.0000    0.0000    0.0000   -0.0000    0.0023    0.0247   -0.0000
     4 N1     *s         0.0000    0.0000   -0.0000   -0.0000    0.0000    0.0000   -0.0000   -0.0449   -0.0121    0.0000
     5 N1     2px       -0.0024   -0.0000    0.0000    0.0000   -0.0000   -0.0000   -0.0032    0.0000    0.0000   -0.0064
     6 N1     *px        0.0005   -0.0000    0.0000   -0.0000    0.0000   -0.0000   -0.0008    0.0000   -0.0000    0.0059
     7 N1     *px        0.0072    0.0000   -0.0000   -0.0000    0.0000    0.0000    0.0096   -0.0000   -0.0000    0.0010
     8 N1     2py        0.0000   -0.0000   -0.0000    0.0000    0.0000   -0.0032    0.0000   -0.0000   -0.0000   -2.4170
     9 N1     *py       -0.0000   -0.0000   -0.0000   -0.0000   -0.0000   -0.0008    0.0000    0.0000    0.0000    2.2367
    10 N1     *py       -0.0000    0.0000    0.0000   -0.0000   -0.0000    0.0096   -0.0000    0.0000    0.0000    0.3912
    11 N1     2pz        0.0000   -0.0000    0.0000    0.0000   -0.0000    0.0000   -0.0000    0.0399    2.4140    0.0000
    12 N1     *pz        0.0000   -0.0000    0.0000   -0.0000    0.0000   -0.0000    0.0000    0.0025   -2.2144   -0.0000
    13 N1     *pz       -0.0000    0.0000   -0.0000   -0.0000    0.0000   -0.0000    0.0000   -0.0651   -0.4237   -0.0000
    14 N1     *d2-      -0.0000    0.0000   -0.0132    0.0000    0.0132    0.0000   -0.0000    0.0000    0.0000   -0.0000
    15 N1     *d2-       0.0000   -0.0000    0.7141   -0.0000   -0.7136   -0.0000    0.0000   -0.0000   -0.0000   -0.0000
    16 N1     *d1-      -0.0000   -0.0000   -0.0000   -0.0000   -0.0000   -0.0131    0.0000    0.0000   -0.0000    0.0004
    17 N1     *d1-       0.0000    0.0000    0.0000    0.0000    0.0000    0.7140   -0.0002   -0.0000   -0.0000    0.0013
    18 N1     *d0        0.0000   -0.0000    0.0000   -0.0000    0.0000   -0.0000    0.0000    0.0127   -0.0049    0.0000
    19 N1     *d0       -0.0000    0.0000   -0.0000    0.0000   -0.0000    0.0000   -0.0000   -0.7130   -0.0063    0.0000
    20 N1     *d1+       0.0132   -0.0000    0.0000   -0.0000    0.0000   -0.0000   -0.0131   -0.0000    0.0000    0.0000
    21 N1     *d1+      -0.7136    0.0000   -0.0000    0.0000   -0.0000    0.0002    0.7140    0.0000    0.0000    0.0000
    22 N1     *d2+       0.0000   -0.0132   -0.0000    0.0132   -0.0000    0.0000    0.0000   -0.0000   -0.0000    0.0000
    23 N1     *d2+      -0.0000    0.7141    0.0000   -0.7137    0.0000   -0.0000   -0.0000    0.0000   -0.0000    0.0000
    24 N1     *f3-       0.0000    0.0000    0.0000   -0.0000   -0.0000   -0.0000    0.0000   -0.0000    0.0000    0.0000
    25 N1     *f2-      -0.0000   -0.0000    0.0001   -0.0000   -0.0000   -0.0000    0.0000   -0.0000   -0.0000   -0.0000
    26 N1     *f1-       0.0000    0.0000   -0.0000    0.0000    0.0000    0.0000   -0.0000   -0.0000    0.0000   -0.0005
    27 N1     *f0        0.0000   -0.0000    0.0000    0.0000   -0.0000    0.0000   -0.0000    0.0001    0.0021    0.0000
    28 N1     *f1+      -0.0002   -0.0000   -0.0000    0.0000   -0.0000    0.0000    0.0000    0.0000   -0.0000   -0.0000
    29 N1     *f2+      -0.0000    0.0001    0.0000   -0.0000    0.0000   -0.0000   -0.0000    0.0000    0.0000    0.0000
    30 N1     *f3+       0.0000    0.0000   -0.0000   -0.0000    0.0000    0.0000    0.0000   -0.0000    0.0000   -0.0000
    31 N2     1s         0.0000    0.0000   -0.0000    0.0000   -0.0000   -0.0000    0.0000   -0.0060   -0.0117   -0.0000
    32 N2     2s         0.0000    0.0000   -0.0000    0.0000   -0.0000   -0.0000    0.0000   -0.0366   -0.0090   -0.0000
    33 N2     *s        -0.0000   -0.0000    0.0000   -0.0000    0.0000    0.0000   -0.0000   -0.0023    0.0247    0.0000
    34 N2     *s        -0.0000   -0.0000    0.0000   -0.0000    0.0000    0.0000   -0.0000    0.0449   -0.0121   -0.0000
    35 N2     2px       -0.0024    0.0000   -0.0000    0.0000   -0.0000    0.0000    0.0033    0.0000   -0.0000   -0.0064
    36 N2     *px        0.0005    0.0000   -0.0000   -0.0000    0.0000    0.0000    0.0008    0.0000    0.0000    0.0059
    37 N2     *px        0.0072   -0.0000    0.0000   -0.0000    0.0000   -0.0000   -0.0096   -0.0000    0.0000    0.0010
    38 N2     2py        0.0000    0.0000    0.0000    0.0000    0.0000    0.0033   -0.0000    0.0000    0.0000   -2.4228
    39 N2     *py       -0.0000    0.0000    0.0000   -0.0000   -0.0000    0.0008   -0.0000   -0.0000   -0.0000    2.2420
    40 N2     *py       -0.0000   -0.0000   -0.0000   -0.0000   -0.0000   -0.0096    0.0000    0.0000   -0.0000    0.3921
    41 N2     2pz        0.0000   -0.0000    0.0000   -0.0000    0.0000   -0.0000    0.0000    0.0399   -2.4138    0.0000
    42 N2     *pz        0.0000   -0.0000    0.0000    0.0000   -0.0000    0.0000   -0.0000    0.0025    2.2142   -0.0000
    43 N2     *pz       -0.0000    0.0000   -0.0000    0.0000   -0.0000    0.0000   -0.0000   -0.0652    0.4237   -0.0000
    44 N2     *d2-       0.0000    0.0000   -0.0131   -0.0000   -0.0132    0.0000   -0.0000    0.0000   -0.0000   -0.0000
    45 N2     *d2-      -0.0000   -0.0000    0.7136    0.0000    0.7141   -0.0000    0.0000   -0.0000    0.0000   -0.0000
    46 N2     *d1-       0.0000   -0.0000   -0.0000    0.0000    0.0000   -0.0131    0.0000   -0.0000   -0.0000   -0.0004
    47 N2     *d1-      -0.0000    0.0000    0.0000   -0.0000   -0.0000    0.7137   -0.0002    0.0000   -0.0000   -0.0013
    48 N2     *d0       -0.0000    0.0000   -0.0000   -0.0000    0.0000   -0.0000    0.0000   -0.0127   -0.0049   -0.0000
    49 N2     *d0        0.0000   -0.0000    0.0000    0.0000   -0.0000    0.0000   -0.0000    0.7129   -0.0063   -0.0000
    50 N2     *d1+      -0.0132   -0.0000    0.0000    0.0000   -0.0000   -0.0000   -0.0131    0.0000    0.0000   -0.0000
    51 N2     *d1+       0.7141    0.0000   -0.0000   -0.0000    0.0000    0.0002    0.7136   -0.0000    0.0000   -0.0000
    52 N2     *d2+      -0.0000   -0.0131   -0.0000   -0.0132    0.0000    0.0000    0.0000   -0.0000    0.0000    0.0000
    53 N2     *d2+       0.0000    0.7136    0.0000    0.7141   -0.0000   -0.0000   -0.0000    0.0000   -0.0000    0.0000
    54 N2     *f3-       0.0000    0.0000    0.0000    0.0000    0.0000    0.0000   -0.0000    0.0000   -0.0000    0.0000
    55 N2     *f2-       0.0000    0.0000   -0.0001   -0.0000   -0.0000    0.0000   -0.0000    0.0000   -0.0000   -0.0000
    56 N2     *f1-       0.0000    0.0000    0.0000    0.0000    0.0000   -0.0000    0.0000    0.0000   -0.0000   -0.0005
    57 N2     *f0        0.0000   -0.0000    0.0000   -0.0000    0.0000   -0.0000    0.0000    0.0001   -0.0021    0.0000
    58 N2     *f1+      -0.0002    0.0000   -0.0000    0.0000   -0.0000   -0.0000   -0.0000    0.0000    0.0000   -0.0000
    59 N2     *f2+      -0.0000   -0.0001   -0.0000   -0.0000    0.0000    0.0000    0.0000   -0.0000    0.0000    0.0000
    60 N2     *f3+       0.0000    0.0000   -0.0000    0.0000   -0.0000   -0.0000   -0.0000   -0.0000   -0.0000   -0.0000


      Orbital                31        32        33        34        35        36        37        38        39        40
      Energy             0.0000    0.0000    0.0000    0.0000    0.0000    0.0000    0.0000    0.0000    0.0000    0.0000
      Occ. No.           0.0000    0.0000    0.0000    0.0000    0.0000    0.0000    0.0000    0.0000    0.0000    0.0000

     1 N1     1s        -0.0000   -0.0000    0.0000   -0.0167   -0.0015    0.0000   -0.0000   -0.0000    0.0000   -0.0000
     2 N1     2s        -0.0000   -0.0000    0.0000   -0.0151   -0.0029    0.0000   -0.0000   -0.0000    0.0000   -0.0000
     3 N1     *s         0.0000    0.0000   -0.0000    0.0346    0.0024   -0.0000    0.0000    0.0000   -0.0000    0.0000
     4 N1     *s        -0.0000   -0.0000    0.0000   -0.0141    0.0013   -0.0000    0.0000    0.0000   -0.0000    0.0000
     5 N1     2px       -2.4170    0.0043    2.4243    0.0000    0.0000   -0.0020   -0.0000   -0.0000    0.0000    0.0000
     6 N1     *px        2.2366   -0.0040   -2.2510   -0.0000   -0.0000    0.0020    0.0000    0.0000   -0.0000   -0.0000
     7 N1     *px        0.3912   -0.0007   -0.3802   -0.0000    0.0000   -0.0001   -0.0000   -0.0000    0.0000    0.0000
     8 N1     2py        0.0064    2.4243   -0.0043   -0.0000   -0.0000    0.0000   -0.0020    0.0000    0.0000    0.0017
     9 N1     *py       -0.0059   -2.2510    0.0040    0.0000    0.0000   -0.0000    0.0020   -0.0000   -0.0000   -0.0018
    10 N1     *py       -0.0010   -0.3802    0.0007    0.0000   -0.0000    0.0000   -0.0001    0.0000    0.0000    0.0002
    11 N1     2pz       -0.0000    0.0000   -0.0000   -2.4273   -0.0086    0.0000   -0.0000   -0.0000    0.0000   -0.0000
    12 N1     *pz        0.0000   -0.0000    0.0000    2.2807    0.0091   -0.0000    0.0000    0.0000   -0.0000    0.0000
    13 N1     *pz        0.0000   -0.0000    0.0000    0.3344   -0.0007    0.0000   -0.0000   -0.0000    0.0000   -0.0000
    14 N1     *d2-      -0.0000    0.0000    0.0000    0.0000   -0.0000   -0.0000    0.0000    0.0018    0.0000   -0.0000
    15 N1     *d2-      -0.0000    0.0000    0.0000   -0.0000    0.0000    0.0000   -0.0000   -0.0011   -0.0000    0.0000
    16 N1     *d1-      -0.0000    0.0016   -0.0000   -0.0000   -0.0000   -0.0000    0.0024    0.0000    0.0000    0.0024
    17 N1     *d1-      -0.0000    0.0005   -0.0000   -0.0000    0.0000    0.0000   -0.0014   -0.0000   -0.0000   -0.0012
    18 N1     *d0       -0.0000   -0.0000    0.0000   -0.0084    0.0026    0.0000   -0.0000   -0.0000    0.0000    0.0000
    19 N1     *d0       -0.0000   -0.0000    0.0000   -0.0062   -0.0015   -0.0000    0.0000    0.0000   -0.0000   -0.0000
    20 N1     *d1+       0.0004    0.0000    0.0016    0.0000    0.0000    0.0024    0.0000   -0.0000    0.0000    0.0000
    21 N1     *d1+       0.0013    0.0000    0.0005   -0.0000   -0.0000   -0.0014   -0.0000    0.0000   -0.0000   -0.0000
    22 N1     *d2+      -0.0000   -0.0000    0.0000   -0.0000    0.0000    0.0000    0.0000   -0.0000    0.0019   -0.0000
    23 N1     *d2+      -0.0000   -0.0000    0.0000    0.0000   -0.0000   -0.0000   -0.0000    0.0000   -0.0011    0.0000
    24 N1     *f3-      -0.0000   -0.0000    0.0000    0.0000   -0.0000   -0.0000   -0.0001    0.0000   -0.0000   -0.0001
    25 N1     *f2-      -0.0000    0.0000    0.0000    0.0000   -0.0000   -0.0000    0.0000    0.6906    0.0000   -0.0000
    26 N1     *f1-       0.0000   -0.0004    0.0000   -0.0000   -0.0000   -0.0005    0.7046    0.0000    0.0000    0.7096
    27 N1     *f0       -0.0000   -0.0000    0.0000    0.0028    0.7049    0.0000   -0.0000   -0.0000    0.0028    0.0000
    28 N1     *f1+      -0.0005   -0.0000   -0.0004    0.0000    0.0000    0.7035    0.0005   -0.0000    0.0000    0.0007
    29 N1     *f2+      -0.0000   -0.0000    0.0000   -0.0000    0.0004    0.0000    0.0000   -0.0000    0.7013   -0.0000
    30 N1     *f3+      -0.0000    0.0000    0.0000    0.0000    0.0000    0.0006    0.0000    0.0000    0.0000    0.0000
    31 N2     1s         0.0000   -0.0000    0.0000    0.0167   -0.0015   -0.0000    0.0000    0.0000   -0.0000   -0.0000
    32 N2     2s         0.0000   -0.0000    0.0000    0.0152   -0.0029   -0.0000    0.0000    0.0000   -0.0000   -0.0000
    33 N2     *s        -0.0000    0.0000   -0.0000   -0.0346    0.0024    0.0000   -0.0000   -0.0000    0.0000    0.0000
    34 N2     *s         0.0000   -0.0000    0.0000    0.0141    0.0013    0.0000   -0.0000   -0.0000    0.0000    0.0000
    35 N2     2px       -2.4228   -0.0043   -2.4185    0.0000   -0.0000   -0.0020   -0.0000    0.0000   -0.0000   -0.0000
    36 N2     *px        2.2421    0.0040    2.2456   -0.0000    0.0000    0.0020    0.0000   -0.0000    0.0000    0.0000
    37 N2     *px        0.3921    0.0007    0.3793   -0.0000   -0.0000   -0.0001   -0.0000    0.0000   -0.0000   -0.0000
    38 N2     2py        0.0064   -2.4185    0.0043   -0.0000    0.0000    0.0000   -0.0020   -0.0000   -0.0000   -0.0017
    39 N2     *py       -0.0059    2.2456   -0.0040    0.0000   -0.0000   -0.0000    0.0020    0.0000    0.0000    0.0019
    40 N2     *py       -0.0010    0.3793   -0.0007    0.0000    0.0000    0.0000   -0.0001   -0.0000   -0.0000   -0.0002
    41 N2     2pz       -0.0000   -0.0000    0.0000   -2.4275    0.0086    0.0000   -0.0000   -0.0000    0.0000    0.0000
    42 N2     *pz        0.0000    0.0000   -0.0000    2.2809   -0.0090   -0.0000    0.0000    0.0000   -0.0000   -0.0000
    43 N2     *pz        0.0000    0.0000   -0.0000    0.3344    0.0006    0.0000   -0.0000   -0.0000    0.0000    0.0000
    44 N2     *d2-      -0.0000   -0.0000   -0.0000    0.0000    0.0000    0.0000   -0.0000    0.0019    0.0000   -0.0000
    45 N2     *d2-      -0.0000   -0.0000   -0.0000   -0.0000   -0.0000   -0.0000    0.0000   -0.0011   -0.0000    0.0000
    46 N2     *d1-       0.0000    0.0016   -0.0000   -0.0000   -0.0000    0.0000   -0.0024    0.0000    0.0000    0.0024
    47 N2     *d1-       0.0000    0.0005   -0.0000   -0.0000    0.0000   -0.0000    0.0014   -0.0000   -0.0000   -0.0012
    48 N2     *d0        0.0000   -0.0000    0.0000    0.0084    0.0026   -0.0000    0.0000    0.0000   -0.0000    0.0000
    49 N2     *d0        0.0000   -0.0000    0.0000    0.0062   -0.0015    0.0000   -0.0000   -0.0000    0.0000   -0.0000
    50 N2     *d1+      -0.0004    0.0000    0.0016   -0.0000    0.0000   -0.0024   -0.0000   -0.0000    0.0000    0.0000
    51 N2     *d1+      -0.0013    0.0000    0.0005   -0.0000   -0.0000    0.0014    0.0000    0.0000   -0.0000   -0.0000
    52 N2     *d2+      -0.0000    0.0000   -0.0000   -0.0000   -0.0000   -0.0000   -0.0000   -0.0000    0.0019   -0.0000
    53 N2     *d2+      -0.0000    0.0000   -0.0000    0.0000    0.0000    0.0000    0.0000    0.0000   -0.0011    0.0000
    54 N2     *f3-      -0.0000    0.0000   -0.0000   -0.0000   -0.0000    0.0000    0.0001   -0.0000    0.0000   -0.0003
    55 N2     *f2-      -0.0000   -0.0000   -0.0000   -0.0000   -0.0000   -0.0000    0.0000   -0.7232   -0.0000    0.0000
    56 N2     *f1-       0.0000    0.0004   -0.0000   -0.0000    0.0000   -0.0005    0.7096   -0.0000   -0.0000   -0.7046
    57 N2     *f0       -0.0000    0.0000   -0.0000    0.0028   -0.7093    0.0000   -0.0000   -0.0000    0.0028   -0.0000
    58 N2     *f1+      -0.0005    0.0000    0.0004    0.0000   -0.0000    0.7106    0.0005    0.0000   -0.0000   -0.0007
    59 N2     *f2+      -0.0000    0.0000   -0.0000    0.0000    0.0004    0.0000    0.0000    0.0000   -0.7129    0.0000
    60 N2     *f3+      -0.0000   -0.0000   -0.0000   -0.0000   -0.0000   -0.0001   -0.0000   -0.0000   -0.0000    0.0000


      Orbital                41        42        43        44        45        46        47        48        49        50
      Energy             0.0000    0.0000    0.0000    0.0000    0.0000    0.0000    0.0000    0.0000    0.0000    0.0000
      Occ. No.           0.0000    0.0000    0.0000    0.0000    0.0000    0.0000    0.0000    0.0000    0.0000    0.0000

     1 N1     1s         0.0000    0.0021   -0.0000    0.0000    0.0000   -0.0000   -0.0000   -0.0000    0.0136   -0.0000
     2 N1     2s         0.0000    0.0039   -0.0000    0.0000    0.0000   -0.0000   -0.0000   -0.0000    0.0275   -0.0000
     3 N1     *s        -0.0000   -0.0034    0.0000   -0.0000   -0.0000    0.0000    0.0000    0.0000   -0.0203    0.0000
     4 N1     *s        -0.0000   -0.0016    0.0000   -0.0000   -0.0000    0.0000    0.0000    0.0000   -0.0150    0.0000
     5 N1     2px        0.0017    0.0000   -0.0000    0.0000   -0.0000   -0.0000   -0.0000    0.0000   -0.0000    0.0019
     6 N1     *px       -0.0018   -0.0000    0.0000   -0.0000    0.0000    0.0000    0.0000   -0.0000    0.0000   -0.0029
     7 N1     *px        0.0002    0.0000   -0.0000    0.0000    0.0000    0.0000    0.0000   -0.0000   -0.0000    0.0011
     8 N1     2py       -0.0000   -0.0000    0.0000    0.0000    0.0000   -0.0000    0.0000    0.0000    0.0000   -0.0000
     9 N1     *py        0.0000    0.0000   -0.0000   -0.0000   -0.0000    0.0000   -0.0000   -0.0000   -0.0000    0.0000
    10 N1     *py       -0.0000   -0.0000    0.0000    0.0000   -0.0000    0.0000   -0.0000   -0.0000    0.0000   -0.0000
    11 N1     2pz        0.0000    0.0109   -0.0000    0.0000    0.0000   -0.0000   -0.0000   -0.0000    0.0207   -0.0000
    12 N1     *pz       -0.0000   -0.0118    0.0000   -0.0000   -0.0000    0.0000    0.0000    0.0000   -0.0244    0.0000
    13 N1     *pz        0.0000    0.0012   -0.0000    0.0000    0.0000    0.0000   -0.0000   -0.0000    0.0046   -0.0000
    14 N1     *d2-       0.0000    0.0000    0.0019   -0.0000   -0.0000   -0.0000   -0.0000    0.0000   -0.0000   -0.0000
    15 N1     *d2-      -0.0000   -0.0000   -0.0010    0.0000    0.0000    0.0000    0.0000   -0.0000    0.0000    0.0000
    16 N1     *d1-      -0.0000    0.0000   -0.0000   -0.0000    0.0000   -0.0000    0.0000    0.0000   -0.0000   -0.0006
    17 N1     *d1-       0.0000   -0.0000    0.0000    0.0000   -0.0000    0.0000   -0.0000   -0.0000    0.0000    0.0003
    18 N1     *d0       -0.0000    0.0028    0.0000   -0.0000   -0.0000    0.0000   -0.0000   -0.0000    0.8180    0.0000
    19 N1     *d0        0.0000   -0.0013   -0.0000    0.0000    0.0000   -0.0000    0.0000    0.0000   -0.4144   -0.0000
    20 N1     *d1+       0.0024   -0.0000    0.0000   -0.0000   -0.0000   -0.0000   -0.0000    0.0000    0.0000    0.8079
    21 N1     *d1+      -0.0012    0.0000   -0.0000    0.0000    0.0000    0.0000    0.0000   -0.0000   -0.0000   -0.4094
    22 N1     *d2+      -0.0000   -0.0000    0.0000    0.0019    0.0000   -0.0000    0.0000    0.0000    0.0001    0.0000
    23 N1     *d2+       0.0000    0.0000   -0.0000   -0.0010   -0.0000    0.0000   -0.0000   -0.0000   -0.0001   -0.0000
    24 N1     *f3-      -0.0000    0.0000    0.0000   -0.0000    0.7270   -0.0005    0.6866    0.0004    0.0000   -0.0000
    25 N1     *f2-       0.0000    0.0000    0.7232   -0.0000   -0.0000   -0.0000   -0.0000    0.0000    0.0000    0.0000
    26 N1     *f1-      -0.0007    0.0000   -0.0000   -0.0000    0.0001   -0.0000    0.0000    0.0000    0.0000    0.0000
    27 N1     *f0       -0.0000    0.7093    0.0000   -0.0004   -0.0000    0.0000   -0.0000   -0.0000   -0.0022   -0.0000
    28 N1     *f1+       0.7106   -0.0000    0.0000   -0.0000   -0.0000   -0.0009   -0.0000    0.0007   -0.0000   -0.0020
    29 N1     *f2+      -0.0000   -0.0028    0.0000    0.7129    0.0000   -0.0000    0.0000    0.0000   -0.0000   -0.0000
    30 N1     *f3+       0.0011   -0.0000    0.0000    0.0000    0.0005    0.7270    0.0004   -0.6866    0.0000   -0.0000
    31 N2     1s         0.0000   -0.0021   -0.0000    0.0000    0.0000   -0.0000    0.0000    0.0000    0.0131    0.0000
    32 N2     2s         0.0000   -0.0039   -0.0000    0.0000    0.0000   -0.0000    0.0000    0.0000    0.0265    0.0000
    33 N2     *s        -0.0000    0.0034    0.0000   -0.0000   -0.0000    0.0000   -0.0000   -0.0000   -0.0196   -0.0000
    34 N2     *s        -0.0000    0.0016    0.0000   -0.0000   -0.0000    0.0000   -0.0000   -0.0000   -0.0145   -0.0000
    35 N2     2px       -0.0017    0.0000   -0.0000    0.0000    0.0000    0.0000    0.0000   -0.0000    0.0000    0.0016
    36 N2     *px        0.0019   -0.0000    0.0000   -0.0000   -0.0000   -0.0000   -0.0000    0.0000   -0.0000   -0.0027
    37 N2     *px       -0.0002    0.0000   -0.0000    0.0000    0.0000    0.0000    0.0000   -0.0000    0.0000    0.0011
    38 N2     2py        0.0000   -0.0000    0.0000    0.0000    0.0000    0.0000   -0.0000   -0.0000   -0.0000   -0.0000
    39 N2     *py       -0.0000    0.0000   -0.0000   -0.0000   -0.0000   -0.0000    0.0000    0.0000    0.0000    0.0000
    40 N2     *py        0.0000   -0.0000    0.0000    0.0000   -0.0000    0.0000    0.0000   -0.0000   -0.0000   -0.0000
    41 N2     2pz       -0.0000    0.0109    0.0000   -0.0000   -0.0000    0.0000   -0.0000   -0.0000   -0.0199   -0.0000
    42 N2     *pz        0.0000   -0.0119   -0.0000    0.0000    0.0000   -0.0000    0.0000    0.0000    0.0236    0.0000
    43 N2     *pz       -0.0000    0.0012    0.0000   -0.0000   -0.0000    0.0000   -0.0000   -0.0000   -0.0045   -0.0000
    44 N2     *d2-       0.0000    0.0000   -0.0018    0.0000    0.0000    0.0000   -0.0000    0.0000    0.0000    0.0000
    45 N2     *d2-      -0.0000   -0.0000    0.0010   -0.0000   -0.0000   -0.0000    0.0000   -0.0000   -0.0000   -0.0000
    46 N2     *d1-      -0.0000   -0.0000    0.0000    0.0000    0.0000   -0.0000   -0.0000   -0.0000   -0.0000    0.0006
    47 N2     *d1-       0.0000    0.0000   -0.0000   -0.0000   -0.0000    0.0000    0.0000    0.0000    0.0000   -0.0003
    48 N2     *d0       -0.0000   -0.0028    0.0000   -0.0000   -0.0000    0.0000    0.0000    0.0000    0.8375   -0.0000
    49 N2     *d0        0.0000    0.0013   -0.0000    0.0000    0.0000   -0.0000   -0.0000   -0.0000   -0.4243    0.0000
    50 N2     *d1+       0.0024    0.0000   -0.0000    0.0000    0.0000   -0.0000   -0.0000    0.0000    0.0000   -0.8474
    51 N2     *d1+      -0.0012   -0.0000    0.0000   -0.0000   -0.0000    0.0000    0.0000   -0.0000   -0.0000    0.4294
    52 N2     *d2+      -0.0000   -0.0000   -0.0000   -0.0018   -0.0000    0.0000    0.0000    0.0000   -0.0002   -0.0000
    53 N2     *d2+       0.0000    0.0000    0.0000    0.0010    0.0000   -0.0000   -0.0000   -0.0000    0.0001    0.0000
    54 N2     *f3-      -0.0000   -0.0000    0.0000   -0.0000    0.6866   -0.0004   -0.7270   -0.0004   -0.0000   -0.0000
    55 N2     *f2-      -0.0000   -0.0000    0.6906   -0.0000   -0.0000   -0.0000    0.0000   -0.0000    0.0000    0.0000
    56 N2     *f1-       0.0007    0.0000   -0.0000   -0.0000   -0.0002    0.0000    0.0002    0.0000   -0.0000    0.0000
    57 N2     *f0        0.0000    0.7049   -0.0000    0.0004    0.0000   -0.0000   -0.0000   -0.0000    0.0023   -0.0000
    58 N2     *f1+      -0.7035   -0.0000    0.0000   -0.0000   -0.0000    0.0004    0.0000   -0.0001    0.0000   -0.0021
    59 N2     *f2+       0.0000    0.0029    0.0000    0.7013    0.0000   -0.0000   -0.0000   -0.0000   -0.0000   -0.0000
    60 N2     *f3+       0.0002    0.0000    0.0000    0.0000    0.0004    0.6866   -0.0004    0.7270   -0.0000   -0.0000


      Orbital                51        52        53        54        55        56        57        58        59        60
      Energy             0.0000    0.0000    0.0000    0.0000    0.0000    0.0000    0.0000    0.0000    0.0000    0.0000
      Occ. No.           0.0000    0.0000    0.0000    0.0000    0.0000    0.0000    0.0000    0.0000    0.0000    0.0000

     1 N1     1s         0.0000    0.0000    0.0000    0.0000    0.0000   -0.0000   -0.0000    0.0194    1.6279   -1.6544
     2 N1     2s         0.0000    0.0000    0.0000    0.0000    0.0000   -0.0000   -0.0000    0.0392    3.5405   -3.6174
     3 N1     *s        -0.0000   -0.0000   -0.0000   -0.0000   -0.0000    0.0000    0.0000   -0.0292   -2.3125    2.3404
     4 N1     *s        -0.0000   -0.0000   -0.0000   -0.0000   -0.0000    0.0000    0.0000   -0.0213   -2.2128    2.2822
     5 N1     2px        0.0000    0.0000   -0.0000    0.0000   -0.0000   -0.0059    0.0000    0.0000    0.0000   -0.0000
     6 N1     *px       -0.0000   -0.0000    0.0000   -0.0000    0.0000    0.0060   -0.0000   -0.0000    0.0000    0.0000
     7 N1     *px        0.0000    0.0000   -0.0000    0.0000   -0.0000   -0.0003    0.0000    0.0000   -0.0000    0.0000
     8 N1     2py        0.0019   -0.0000   -0.0000   -0.0000   -0.0059    0.0000    0.0000   -0.0000    0.0000   -0.0000
     9 N1     *py       -0.0029    0.0000    0.0000    0.0000    0.0060   -0.0000   -0.0000    0.0000   -0.0000    0.0000
    10 N1     *py        0.0011   -0.0000   -0.0000   -0.0000   -0.0003    0.0000    0.0000   -0.0000    0.0000    0.0000
    11 N1     2pz        0.0000    0.0000    0.0000    0.0000    0.0000   -0.0000   -0.0000    0.0310    0.0441    0.0598
    12 N1     *pz       -0.0000   -0.0000   -0.0000   -0.0000   -0.0000    0.0000    0.0000   -0.0349   -0.0540   -0.0741
    13 N1     *pz        0.0000    0.0000    0.0000    0.0000    0.0000   -0.0000   -0.0000    0.0055    0.0152    0.0226
    14 N1     *d2-       0.0000    0.5706   -0.0000    1.0224   -0.0000    0.0001   -0.0000   -0.0000    0.0000   -0.0000
    15 N1     *d2-      -0.0000   -0.2892    0.0000   -0.5181    0.0000   -0.0000    0.0000    0.0000   -0.0000    0.0000
    16 N1     *d1-       0.8085    0.0000    0.0000    0.0000    0.8469   -0.0008   -0.0000   -0.0000   -0.0000    0.0000
    17 N1     *d1-      -0.4097   -0.0000   -0.0000   -0.0000   -0.4292    0.0004    0.0000    0.0000    0.0000   -0.0000
    18 N1     *d0       -0.0000   -0.0000    0.0002    0.0000    0.0000   -0.0000   -0.0001   -0.8376   -0.0085   -0.0120
    19 N1     *d0        0.0000    0.0000   -0.0001   -0.0000   -0.0000    0.0000    0.0000    0.4250    0.0070    0.0100
    20 N1     *d1+       0.0006   -0.0000    0.0000   -0.0000    0.0008    0.8475   -0.0000    0.0000    0.0000   -0.0000
    21 N1     *d1+      -0.0003    0.0000   -0.0000    0.0000   -0.0004   -0.4295    0.0000   -0.0000   -0.0000    0.0000
    22 N1     *d2+       0.0000   -0.0000    0.1016    0.0000    0.0000    0.0000    1.1664    0.0001   -0.0000    0.0000
    23 N1     *d2+      -0.0000    0.0000   -0.0515   -0.0000   -0.0000   -0.0000   -0.5911   -0.0000    0.0000   -0.0000
    24 N1     *f3-       0.0000   -0.0000   -0.0000   -0.0000   -0.0000    0.0000   -0.0000   -0.0000   -0.0000    0.0000
    25 N1     *f2-      -0.0000   -0.0011    0.0000   -0.0020    0.0000   -0.0000    0.0000    0.0000    0.0000    0.0000
    26 N1     *f1-      -0.0020   -0.0000   -0.0000   -0.0000   -0.0021    0.0000    0.0000    0.0000   -0.0000   -0.0000
    27 N1     *f0        0.0000    0.0000   -0.0000   -0.0000   -0.0000    0.0000    0.0000    0.0024    0.0010    0.0013
    28 N1     *f1+      -0.0000    0.0000   -0.0000    0.0000   -0.0000   -0.0021    0.0000   -0.0000    0.0000    0.0000
    29 N1     *f2+      -0.0000    0.0000   -0.0002   -0.0000   -0.0000   -0.0000   -0.0022   -0.0000   -0.0000    0.0000
    30 N1     *f3+      -0.0000    0.0000   -0.0000    0.0000    0.0000    0.0000   -0.0000    0.0000    0.0000    0.0000
    31 N2     1s        -0.0000   -0.0000    0.0000    0.0000    0.0000   -0.0000   -0.0000   -0.0198    1.6358    1.6467
    32 N2     2s        -0.0000   -0.0000    0.0000    0.0000    0.0000   -0.0000   -0.0000   -0.0398    3.5576    3.6005
    33 N2     *s         0.0000    0.0000   -0.0000   -0.0000   -0.0000    0.0000    0.0000    0.0297   -2.3236   -2.3293
    34 N2     *s         0.0000    0.0000   -0.0000   -0.0000   -0.0000    0.0000    0.0000    0.0216   -2.2235   -2.2716
    35 N2     2px        0.0000   -0.0000    0.0000   -0.0000    0.0000    0.0060   -0.0000    0.0000    0.0000    0.0000
    36 N2     *px       -0.0000    0.0000   -0.0000    0.0000   -0.0000   -0.0062    0.0000   -0.0000   -0.0000    0.0000
    37 N2     *px        0.0000   -0.0000    0.0000   -0.0000    0.0000    0.0004   -0.0000    0.0000   -0.0000   -0.0000
    38 N2     2py        0.0016    0.0000    0.0000    0.0000    0.0060   -0.0000   -0.0000   -0.0000    0.0000    0.0000
    39 N2     *py       -0.0027   -0.0000   -0.0000   -0.0000   -0.0062    0.0000    0.0000    0.0000   -0.0000   -0.0000
    40 N2     *py        0.0011    0.0000    0.0000    0.0000    0.0004   -0.0000   -0.0000   -0.0000   -0.0000   -0.0000
    41 N2     2pz        0.0000    0.0000   -0.0000   -0.0000   -0.0000    0.0000    0.0000    0.0315   -0.0438    0.0600
    42 N2     *pz       -0.0000   -0.0000    0.0000    0.0000    0.0000   -0.0000   -0.0000   -0.0354    0.0536   -0.0744
    43 N2     *pz        0.0000    0.0000   -0.0000   -0.0000   -0.0000    0.0000    0.0000    0.0056   -0.0151    0.0226
    44 N2     *d2-      -0.0000    1.0224    0.0000   -0.5706   -0.0000    0.0000    0.0000   -0.0000   -0.0000   -0.0000
    45 N2     *d2-       0.0000   -0.5181   -0.0000    0.2892    0.0000   -0.0000   -0.0000    0.0000    0.0000    0.0000
    46 N2     *d1-      -0.8469    0.0000    0.0000    0.0000    0.8085   -0.0008   -0.0000    0.0000   -0.0000   -0.0000
    47 N2     *d1-       0.4291   -0.0000   -0.0000   -0.0000   -0.4098    0.0004    0.0000   -0.0000    0.0000    0.0000
    48 N2     *d0        0.0000    0.0000    0.0001    0.0000    0.0000   -0.0000   -0.0002    0.8180   -0.0084    0.0121
    49 N2     *d0       -0.0000   -0.0000   -0.0000   -0.0000   -0.0000    0.0000    0.0001   -0.4151    0.0069   -0.0101
    50 N2     *d1+      -0.0006   -0.0000    0.0000   -0.0000    0.0008    0.8079   -0.0000   -0.0000    0.0000    0.0000
    51 N2     *d1+       0.0003    0.0000   -0.0000    0.0000   -0.0004   -0.4094    0.0000    0.0000   -0.0000   -0.0000
    52 N2     *d2+      -0.0000   -0.0000    1.1664    0.0000   -0.0000   -0.0000   -0.1016    0.0001    0.0000    0.0000
    53 N2     *d2+       0.0000    0.0000   -0.5911   -0.0000    0.0000    0.0000    0.0515   -0.0000   -0.0000   -0.0000
    54 N2     *f3-       0.0000    0.0000   -0.0000   -0.0000    0.0000   -0.0000    0.0000   -0.0000    0.0000   -0.0000
    55 N2     *f2-      -0.0000    0.0020    0.0000   -0.0011   -0.0000    0.0000    0.0000   -0.0000    0.0000   -0.0000
    56 N2     *f1-      -0.0021    0.0000    0.0000    0.0000    0.0020   -0.0000   -0.0000    0.0000    0.0000   -0.0000
    57 N2     *f0        0.0000    0.0000    0.0000    0.0000    0.0000   -0.0000   -0.0000    0.0024   -0.0010    0.0013
    58 N2     *f1+      -0.0000   -0.0000    0.0000   -0.0000    0.0000    0.0020   -0.0000   -0.0000   -0.0000    0.0000
    59 N2     *f2+      -0.0000   -0.0000    0.0023    0.0000   -0.0000   -0.0000   -0.0002    0.0000    0.0000    0.0000
    60 N2     *f3+      -0.0000    0.0000    0.0000   -0.0000   -0.0000   -0.0000   -0.0000   -0.0000    0.0000   -0.0000
--

      Von Neumann Entropy (Root   1) =  2.99930


      Mulliken population analysis for root number:  1
      -----------------------------------------------


++    Molecular charges:
      ------------------

      Mulliken charges per centre and basis function type
      ---------------------------------------------------

                N1      N2    
      1s       2.0016  2.0016
      2s       2.0686  2.0687
      2px      0.9155  0.9155
      2pz      0.9089  0.9089
      2py      0.9155  0.9155
      *s      -0.0698 -0.0699
      *px      0.0844  0.0844
      *pz      0.0907  0.0907
      *py      0.0844  0.0844
      *d2+     0.0000  0.0000
      *d1+     0.0000  0.0000
      *d0      0.0001  0.0001
      *d1-     0.0000  0.0000
      *d2-     0.0000  0.0000
      *f3+     0.0000  0.0000
      *f2+     0.0000  0.0000
      *f1+     0.0000  0.0000
      *f0      0.0000  0.0000
      *f1-     0.0000  0.0000
      *f2-     0.0000  0.0000
      *f3-     0.0000  0.0000
      Total    7.0000  7.0000

      N-E      0.0000 -0.0000

      Total electronic charge=   14.000000

      Total            charge=   -0.000000
--



      Expectation values of various properties for root number:  1
      -----------------------------------------------------------

      Properties not supported for DMRGSCF 

++    Molecular properties:
      ---------------------

      Charge (e):
                      =   -0.0000
      Dipole Moment (Debye):
      Origin of the operator (Ang)=    0.0000    0.0000    0.0000
                   X= -5.3808E-10               Y= -3.3483E-07               Z= -2.6142E-07           Total=  4.2480E-07
      Quadrupole Moment (Debye*Ang):
      Origin of the operator (Ang)=    0.0000    0.0000    2.0000
                  XX= -1.2062E+01              XY= -9.6588E-11              XZ= -8.6752E-09              YY= -1.2062E+01
                  YZ= -6.0724E-07              ZZ= -1.1886E+01
      In traceless form (Debye*Ang)
                  XX= -8.7925E-02              XY= -1.4488E-10              XZ= -1.3013E-08              YY= -8.7925E-02
                  YZ= -9.1086E-07              ZZ=  1.7585E-01
--


      Input file to MOLDEN was generated!

      Average orbitals are written to the RASORB file
      Natural orbitals for root   1 are written to the RASORB.1 file
      Spin density orbitals for root   1 are written to the SPDORB.1 file

--- Stop Module: dmrgscf at Tue Apr  9 00:43:33 2024 /rc=_RC_ALL_IS_WELL_ ---
*** files: n2.GssOrb n2.guessorb.h5 n2.rasscf.molden n2.guessorb.molden n2.scf.molden n2.RasOrb n2.RasOrb.1 n2.dmrgscf.h5 n2.ScfOrb n2.scf.h5 n2.SpdOrb.1 xmldump
    saved to directory /public/home/xzzeng/work/HQC/N2/cc-pvtz/NO/PES/entropy/4.0/results/work_dir/n2/dmrg
--- Module dmrgscf spent 4 seconds ---

.##################.
.# Happy landing! #.
.##################.

    Timing: Wall=5.00 User=3.14 System=0.22
