[Molden Format]
[N_Atoms]
                    2
[Atoms] (AU)
N1          1      7           0.00000000      0.00000000      0.00000000
N2          2      7           0.00000000      0.00000000      2.64561657
[5D]
[7F]
[Charge] (Mulliken)
   3.4356545244307313E-006
  -3.4356546176894653E-006
[GTO] (AU)
   1
   s  10
  1.142000000E+04  5.229996559E-04
  1.712000000E+03  4.044997339E-03
  3.893000000E+02  2.077498633E-02
  1.100000000E+02  8.072694689E-02
  3.557000000E+01  2.330738467E-01
  1.254000000E+01  4.335007148E-01
  4.644000000E+00  3.474717714E-01
  1.293000000E+00  4.126197285E-02
  5.118000000E-01 -8.507994403E-03
  1.787000000E-01  2.383998432E-03
   s  10
  1.142000000E+04 -1.149999544E-04
  1.712000000E+03 -8.949996452E-04
  3.893000000E+02 -4.623998167E-03
  1.100000000E+02 -1.852799265E-02
  3.557000000E+01 -5.733897727E-02
  1.254000000E+01 -1.320759476E-01
  4.644000000E+00 -1.725099316E-01
  1.293000000E+00  1.518139398E-01
  5.118000000E-01  5.999437621E-01
  1.787000000E-01  3.874618464E-01
   s   1
  1.293000000E+00  1.000000000E+00
   s   1
  1.787000000E-01  1.000000000E+00
   p   5
  2.663000000E+01  1.467000345E-02
  5.948000000E+00  9.176402155E-02
  1.742000000E+00  2.986830701E-01
  5.550000000E-01  4.984871171E-01
  1.725000000E-01  3.370230791E-01
   p   1
  5.550000000E-01  1.000000000E+00
   p   1
  1.725000000E-01  1.000000000E+00
   d   1
  1.654000000E+00  1.000000000E+00
   d   1
  4.690000000E-01  1.000000000E+00
   f   1
  1.093000000E+00  1.000000000E+00
 
   2
   s  10
  1.142000000E+04  5.229996559E-04
  1.712000000E+03  4.044997339E-03
  3.893000000E+02  2.077498633E-02
  1.100000000E+02  8.072694689E-02
  3.557000000E+01  2.330738467E-01
  1.254000000E+01  4.335007148E-01
  4.644000000E+00  3.474717714E-01
  1.293000000E+00  4.126197285E-02
  5.118000000E-01 -8.507994403E-03
  1.787000000E-01  2.383998432E-03
   s  10
  1.142000000E+04 -1.149999544E-04
  1.712000000E+03 -8.949996452E-04
  3.893000000E+02 -4.623998167E-03
  1.100000000E+02 -1.852799265E-02
  3.557000000E+01 -5.733897727E-02
  1.254000000E+01 -1.320759476E-01
  4.644000000E+00 -1.725099316E-01
  1.293000000E+00  1.518139398E-01
  5.118000000E-01  5.999437621E-01
  1.787000000E-01  3.874618464E-01
   s   1
  1.293000000E+00  1.000000000E+00
   s   1
  1.787000000E-01  1.000000000E+00
   p   5
  2.663000000E+01  1.467000345E-02
  5.948000000E+00  9.176402155E-02
  1.742000000E+00  2.986830701E-01
  5.550000000E-01  4.984871171E-01
  1.725000000E-01  3.370230791E-01
   p   1
  5.550000000E-01  1.000000000E+00
   p   1
  1.725000000E-01  1.000000000E+00
   d   1
  1.654000000E+00  1.000000000E+00
   d   1
  4.690000000E-01  1.000000000E+00
   f   1
  1.093000000E+00  1.000000000E+00
 
[MO]
Sym=     1a  
Ene=     0.0000
Spin= Alpha
Occup=    0.00000
   1         0.70615885
   2         0.00092968
   3        -0.00085739
   4        -0.00060569
   5         0.00000000
   6         0.00000000
   7         0.00367706
   8        -0.00000000
   9        -0.00000000
  10        -0.00215133
  11        -0.00000000
  12         0.00000000
  13        -0.00094110
  14         0.00024257
  15         0.00000000
  16        -0.00000000
  17        -0.00000000
  18        -0.00000000
  19         0.00007593
  20        -0.00000000
  21         0.00000000
  22         0.00000000
  23         0.00000000
  24        -0.00010206
  25         0.00000000
  26         0.00000000
  27        -0.00000000
  28         0.00000000
  29        -0.00000000
  30        -0.00000000
  31         0.70912286
  32         0.00096068
  33        -0.00087583
  34        -0.00063296
  35        -0.00000000
  36        -0.00000000
  37        -0.00368694
  38         0.00000000
  39         0.00000000
  40         0.00215617
  41         0.00000000
  42        -0.00000000
  43         0.00094860
  44         0.00024293
  45        -0.00000000
  46        -0.00000000
  47        -0.00000000
  48         0.00000000
  49         0.00007748
  50        -0.00000000
  51         0.00000000
  52         0.00000000
  53        -0.00000000
  54         0.00010026
  55        -0.00000000
  56        -0.00000000
  57         0.00000000
  58         0.00000000
  59        -0.00000000
  60        -0.00000000
Sym=     2a  
Ene=     0.0000
Spin= Alpha
Occup=    0.00000
   1        -0.70819209
   2         0.00229624
   3        -0.00022849
   4        -0.00011865
   5        -0.00000000
   6         0.00000000
   7        -0.00382004
   8         0.00000000
   9         0.00000000
  10         0.00442992
  11         0.00000000
  12        -0.00000000
  13         0.00139787
  14        -0.00002586
  15         0.00000000
  16        -0.00000000
  17        -0.00000000
  18        -0.00000000
  19         0.00103289
  20        -0.00000000
  21         0.00000000
  22         0.00000000
  23        -0.00000000
  24         0.00022028
  25         0.00000000
  26        -0.00000000
  27        -0.00000000
  28        -0.00000000
  29         0.00000000
  30         0.00000000
  31         0.70524999
  32        -0.00227442
  33         0.00021939
  34         0.00010451
  35        -0.00000000
  36         0.00000000
  37        -0.00380529
  38         0.00000000
  39         0.00000000
  40         0.00442030
  41         0.00000000
  42        -0.00000000
  43         0.00139629
  44         0.00002550
  45        -0.00000000
  46         0.00000000
  47         0.00000000
  48         0.00000000
  49        -0.00103576
  50         0.00000000
  51        -0.00000000
  52         0.00000000
  53        -0.00000000
  54         0.00022052
  55         0.00000000
  56        -0.00000000
  57         0.00000000
  58         0.00000000
  59        -0.00000000
  60         0.00000000
Sym=     3a  
Ene=     0.0000
Spin= Alpha
Occup=    0.00000
   1        -0.00531450
   2         0.64640571
   3        -0.00104922
   4        -0.09086377
   5         0.00000000
   6        -0.00000000
   7         0.19556066
   8         0.00000000
   9         0.00000000
  10        -0.00028731
  11         0.00000000
  12        -0.00000000
  13        -0.04431071
  14         0.00995965
  15         0.00000000
  16        -0.00000000
  17        -0.00000000
  18        -0.00000000
  19         0.01774375
  20         0.00000000
  21         0.00000000
  22        -0.00000000
  23        -0.00000000
  24         0.00464721
  25         0.00000000
  26        -0.00000000
  27        -0.00000000
  28        -0.00000000
  29         0.00000000
  30         0.00000000
  31        -0.00530918
  32         0.64641973
  33        -0.00105636
  34        -0.09087532
  35         0.00000000
  36        -0.00000000
  37        -0.19555581
  38         0.00000000
  39        -0.00000000
  40         0.00028241
  41        -0.00000000
  42         0.00000000
  43         0.04431167
  44         0.00995937
  45        -0.00000000
  46         0.00000000
  47        -0.00000000
  48         0.00000000
  49         0.01774602
  50         0.00000000
  51         0.00000000
  52         0.00000000
  53         0.00000000
  54        -0.00464786
  55         0.00000000
  56        -0.00000000
  57        -0.00000000
  58        -0.00000000
  59        -0.00000000
  60         0.00000000
Sym=     4a  
Ene=     0.0000
Spin= Alpha
Occup=    0.00000
   1        -0.00474057
   2        -0.71309909
   3        -0.00603141
   4        -0.01638774
   5        -0.00000000
   6        -0.00000000
   7         0.23685771
   8        -0.00000000
   9        -0.00000000
  10        -0.01074804
  11        -0.00000000
  12        -0.00000000
  13        -0.03104376
  14         0.00353934
  15        -0.00000000
  16        -0.00000000
  17         0.00000000
  18         0.00000000
  19         0.00455635
  20        -0.00000000
  21         0.00000000
  22        -0.00000000
  23         0.00000000
  24        -0.00035954
  25        -0.00000000
  26        -0.00000000
  27        -0.00000000
  28         0.00000000
  29        -0.00000000
  30        -0.00000000
  31         0.00474619
  32         0.71311323
  33         0.00602439
  34         0.01637757
  35        -0.00000000
  36        -0.00000000
  37         0.23685337
  38         0.00000000
  39        -0.00000000
  40        -0.01074838
  41         0.00000000
  42        -0.00000000
  43        -0.03103978
  44        -0.00353939
  45        -0.00000000
  46         0.00000000
  47        -0.00000000
  48         0.00000000
  49        -0.00455828
  50         0.00000000
  51         0.00000000
  52         0.00000000
  53         0.00000000
  54        -0.00035932
  55         0.00000000
  56        -0.00000000
  57         0.00000000
  58        -0.00000000
  59         0.00000000
  60         0.00000000
Sym=     5a  
Ene=     0.0000
Spin= Alpha
Occup=    0.00000
   1        -0.00265918
   2         0.20883562
   3         0.00886167
   4         0.12194680
   5        -0.00000000
   6         0.00000000
   7        -0.66731421
   8         0.00000000
   9         0.00000000
  10         0.01070938
  11        -0.00000000
  12        -0.00000000
  13         0.04853966
  14        -0.01157417
  15        -0.00000000
  16         0.00000000
  17         0.00000000
  18         0.00000000
  19        -0.02277868
  20        -0.00000000
  21         0.00000000
  22         0.00000000
  23        -0.00000000
  24        -0.00411598
  25        -0.00000000
  26         0.00000000
  27        -0.00000000
  28         0.00000000
  29        -0.00000000
  30        -0.00000000
  31        -0.00265294
  32         0.20885875
  33         0.00885725
  34         0.12187074
  35        -0.00000000
  36         0.00000000
  37         0.66730136
  38        -0.00000000
  39        -0.00000000
  40        -0.01070004
  41        -0.00000000
  42         0.00000000
  43        -0.04849490
  44        -0.01157358
  45         0.00000000
  46        -0.00000000
  47         0.00000000
  48         0.00000000
  49        -0.02278894
  50         0.00000000
  51        -0.00000000
  52         0.00000000
  53         0.00000000
  54         0.00411682
  55        -0.00000000
  56         0.00000000
  57        -0.00000000
  58         0.00000000
  59        -0.00000000
  60        -0.00000000
Sym=     6a  
Ene=     0.0000
Spin= Alpha
Occup=    0.00000
   1         0.00000000
   2        -0.00000000
   3        -0.00000000
   4        -0.00000000
   5        -0.29526384
   6         0.53129732
   7         0.00000000
   8         0.00056642
   9        -0.00101922
  10        -0.00000000
  11        -0.01219734
  12         0.02194788
  13        -0.00000000
  14         0.00000000
  15        -0.00487861
  16         0.00877856
  17        -0.00000000
  18        -0.00000000
  19         0.00000000
  20        -0.01746179
  21         0.03142072
  22        -0.00000000
  23        -0.00000000
  24         0.00000000
  25        -0.00269287
  26         0.00484554
  27         0.00000000
  28         0.00000000
  29        -0.00000001
  30        -0.00000003
  31         0.00000000
  32        -0.00000000
  33        -0.00000000
  34        -0.00000000
  35        -0.29526746
  36         0.53130383
  37        -0.00000000
  38         0.00056913
  39        -0.00102409
  40        -0.00000000
  41        -0.01219736
  42         0.02194790
  43         0.00000000
  44         0.00000000
  45         0.00487876
  46        -0.00877883
  47         0.00000000
  48         0.00000000
  49         0.00000000
  50         0.01746119
  51        -0.03141964
  52         0.00000000
  53         0.00000000
  54        -0.00000000
  55        -0.00269271
  56         0.00484526
  57         0.00000000
  58         0.00000000
  59        -0.00000009
  60        -0.00000016
Sym=     7a  
Ene=     0.0000
Spin= Alpha
Occup=    0.00000
   1         0.00000000
   2         0.00000000
   3        -0.00000000
   4        -0.00000000
   5        -0.53129732
   6        -0.29526384
   7        -0.00000000
   8         0.00101922
   9         0.00056642
  10         0.00000000
  11        -0.02194788
  12        -0.01219734
  13        -0.00000000
  14        -0.00000000
  15        -0.00877856
  16        -0.00487861
  17         0.00000000
  18        -0.00000000
  19         0.00000000
  20        -0.03142072
  21        -0.01746179
  22         0.00000000
  23        -0.00000000
  24        -0.00000000
  25        -0.00484554
  26        -0.00269287
  27        -0.00000000
  28         0.00000000
  29        -0.00000003
  30         0.00000001
  31        -0.00000000
  32        -0.00000000
  33         0.00000000
  34         0.00000000
  35        -0.53130383
  36        -0.29526746
  37         0.00000000
  38         0.00102409
  39         0.00056913
  40         0.00000000
  41        -0.02194790
  42        -0.01219736
  43        -0.00000000
  44        -0.00000000
  45         0.00877883
  46         0.00487876
  47        -0.00000000
  48         0.00000000
  49        -0.00000000
  50         0.03141964
  51         0.01746119
  52        -0.00000000
  53         0.00000000
  54        -0.00000000
  55        -0.00484526
  56        -0.00269271
  57        -0.00000000
  58         0.00000000
  59        -0.00000016
  60         0.00000009
Sym=     8a  
Ene=     0.0000
Spin= Alpha
Occup=    0.00000
   1         0.00000000
   2        -0.00000000
   3        -0.00000000
   4        -0.00000000
   5        -0.19567232
   6        -0.64636335
   7         0.00000000
   8         0.00751376
   9         0.02482016
  10        -0.00000000
  11        -0.07344316
  12        -0.24260442
  13         0.00000000
  14         0.00000000
  15         0.00183699
  16         0.00606811
  17         0.00000000
  18        -0.00000000
  19         0.00000000
  20         0.00269386
  21         0.00889863
  22         0.00000000
  23        -0.00000000
  24        -0.00000000
  25         0.00060148
  26         0.00198685
  27        -0.00000000
  28         0.00000000
  29         0.00000001
  30        -0.00000004
  31         0.00000000
  32        -0.00000000
  33        -0.00000000
  34        -0.00000000
  35         0.19567359
  36         0.64636752
  37        -0.00000000
  38        -0.00751538
  39        -0.02482550
  40         0.00000000
  41         0.07344286
  42         0.24260340
  43        -0.00000000
  44         0.00000000
  45         0.00183693
  46         0.00606791
  47         0.00000000
  48        -0.00000000
  49         0.00000000
  50         0.00269408
  51         0.00889935
  52         0.00000000
  53        -0.00000000
  54         0.00000000
  55        -0.00060153
  56        -0.00198702
  57         0.00000000
  58        -0.00000000
  59         0.00000005
  60        -0.00000015
Sym=     9a  
Ene=     0.0000
Spin= Alpha
Occup=    0.00000
   1        -0.00000000
   2        -0.00000000
   3         0.00000000
   4        -0.00000000
   5        -0.64636335
   6         0.19567232
   7        -0.00000000
   8         0.02482016
   9        -0.00751376
  10        -0.00000000
  11        -0.24260442
  12         0.07344316
  13        -0.00000000
  14        -0.00000000
  15         0.00606811
  16        -0.00183699
  17        -0.00000000
  18        -0.00000000
  19        -0.00000000
  20         0.00889863
  21        -0.00269386
  22        -0.00000000
  23        -0.00000000
  24         0.00000000
  25         0.00198685
  26        -0.00060148
  27         0.00000000
  28         0.00000000
  29         0.00000004
  30         0.00000001
  31        -0.00000000
  32         0.00000000
  33         0.00000000
  34         0.00000000
  35         0.64636752
  36        -0.19567359
  37         0.00000000
  38        -0.02482550
  39         0.00751538
  40        -0.00000000
  41         0.24260340
  42        -0.07344286
  43        -0.00000000
  44        -0.00000000
  45         0.00606791
  46        -0.00183693
  47        -0.00000000
  48        -0.00000000
  49        -0.00000000
  50         0.00889935
  51        -0.00269408
  52        -0.00000000
  53        -0.00000000
  54        -0.00000000
  55        -0.00198702
  56         0.00060153
  57        -0.00000000
  58        -0.00000000
  59         0.00000015
  60         0.00000005
Sym=    10a  
Ene=     0.0000
Spin= Alpha
Occup=    0.00000
   1         0.00383145
   2         0.41409879
   3        -0.02029726
   4         2.08416618
   5        -0.00000000
   6         0.00000000
   7         0.41811748
   8         0.00000000
   9         0.00000000
  10         0.05117506
  11        -0.00000000
  12        -0.00000000
  13         1.73044399
  14        -0.02768125
  15        -0.00000000
  16         0.00000000
  17         0.00000000
  18        -0.00000000
  19         0.13475255
  20         0.00000000
  21         0.00000000
  22        -0.00000000
  23         0.00000000
  24         0.01467192
  25        -0.00000000
  26        -0.00000000
  27        -0.00000000
  28        -0.00000000
  29        -0.00000000
  30        -0.00000000
  31        -0.00383109
  32        -0.41410646
  33         0.02030168
  34        -2.08412540
  35         0.00000000
  36         0.00000000
  37         0.41809132
  38         0.00000000
  39         0.00000000
  40         0.05112014
  41         0.00000000
  42        -0.00000000
  43         1.73057554
  44         0.02768588
  45         0.00000000
  46        -0.00000000
  47        -0.00000000
  48         0.00000000
  49        -0.13475874
  50        -0.00000000
  51        -0.00000000
  52         0.00000000
  53        -0.00000000
  54         0.01467445
  55        -0.00000000
  56        -0.00000000
  57        -0.00000000
  58        -0.00000000
  59        -0.00000000
  60        -0.00000000
Sym=    11a  
Ene=     0.0000
Spin= Alpha
Occup=    0.00000
   1        -0.05874437
   2        -0.38999316
   3         0.02462421
   4         0.66842389
   5         0.00000000
   6        -0.00000000
   7         0.31085175
   8         0.00000000
   9        -0.00000000
  10         0.37185966
  11        -0.00000000
  12         0.00000000
  13        -1.08385941
  14         0.02686033
  15         0.00000000
  16        -0.00000000
  17        -0.00000000
  18        -0.00000000
  19        -0.02071171
  20         0.00000000
  21        -0.00000000
  22        -0.00000000
  23         0.00000000
  24        -0.01207843
  25         0.00000000
  26        -0.00000000
  27        -0.00000000
  28         0.00000000
  29         0.00000000
  30         0.00000000
  31        -0.05870269
  32        -0.38971309
  33         0.02465496
  34         0.66635613
  35         0.00000000
  36        -0.00000000
  37        -0.31157282
  38         0.00000000
  39        -0.00000000
  40        -0.37177757
  41        -0.00000000
  42         0.00000000
  43         1.08561064
  44         0.02687282
  45        -0.00000000
  46         0.00000000
  47         0.00000000
  48        -0.00000000
  49        -0.02108012
  50        -0.00000000
  51         0.00000000
  52        -0.00000000
  53        -0.00000000
  54         0.01211512
  55         0.00000000
  56        -0.00000000
  57         0.00000000
  58         0.00000000
  59        -0.00000000
  60         0.00000000
Sym=    12a  
Ene=     0.0000
Spin= Alpha
Occup=    0.00000
   1        -0.00000000
   2        -0.00000000
   3         0.00000000
   4         0.00000000
   5        -0.34046677
   6         0.27760693
   7         0.00000000
   8        -0.27952047
   9         0.22791305
  10         0.00000000
  11         0.67546646
  12        -0.55075616
  13        -0.00000000
  14         0.00000000
  15        -0.00304544
  16         0.00248317
  17        -0.00000000
  18        -0.00000000
  19        -0.00000000
  20        -0.06602432
  21         0.05383436
  22         0.00000000
  23         0.00000000
  24        -0.00000000
  25        -0.00205465
  26         0.00167530
  27         0.00000000
  28         0.00000000
  29        -0.00000005
  30        -0.00000004
  31        -0.00000000
  32        -0.00000000
  33         0.00000000
  34         0.00000000
  35        -0.34046869
  36         0.27760850
  37        -0.00000000
  38        -0.27951466
  39         0.22790831
  40        -0.00000000
  41         0.67546282
  42        -0.55075319
  43         0.00000000
  44         0.00000000
  45         0.00304587
  46        -0.00248352
  47         0.00000000
  48         0.00000000
  49        -0.00000000
  50         0.06602068
  51        -0.05383139
  52        -0.00000000
  53        -0.00000000
  54         0.00000000
  55        -0.00205355
  56         0.00167441
  57         0.00000000
  58        -0.00000000
  59        -0.00000033
  60        -0.00000027
Sym=    13a  
Ene=     0.0000
Spin= Alpha
Occup=    0.00000
   1         0.00000000
   2         0.00000000
   3        -0.00000000
   4        -0.00000000
   5        -0.27760693
   6        -0.34046677
   7        -0.00000000
   8        -0.22791305
   9        -0.27952047
  10        -0.00000000
  11         0.55075616
  12         0.67546646
  13         0.00000000
  14        -0.00000000
  15        -0.00248317
  16        -0.00304544
  17         0.00000000
  18        -0.00000000
  19         0.00000000
  20        -0.05383436
  21        -0.06602432
  22        -0.00000000
  23         0.00000000
  24         0.00000000
  25        -0.00167530
  26        -0.00205465
  27        -0.00000000
  28         0.00000000
  29        -0.00000004
  30         0.00000005
  31         0.00000000
  32         0.00000000
  33        -0.00000000
  34        -0.00000000
  35        -0.27760850
  36        -0.34046869
  37         0.00000000
  38        -0.22790831
  39        -0.27951466
  40         0.00000000
  41         0.55075319
  42         0.67546282
  43        -0.00000000
  44        -0.00000000
  45         0.00248352
  46         0.00304587
  47        -0.00000000
  48         0.00000000
  49        -0.00000000
  50         0.05383139
  51         0.06602068
  52         0.00000000
  53        -0.00000000
  54        -0.00000000
  55        -0.00167441
  56        -0.00205355
  57         0.00000000
  58         0.00000000
  59        -0.00000027
  60         0.00000033
Sym=    14a  
Ene=     0.0000
Spin= Alpha
Occup=    0.00000
   1         0.02644909
   2         0.01675426
   3        -0.05755991
   4         1.77331112
   5         0.00000000
   6         0.00000000
   7        -0.82663227
   8         0.00000000
   9         0.00000000
  10        -0.00737192
  11         0.00000000
  12        -0.00000000
  13         1.96262534
  14        -0.01136650
  15        -0.00000000
  16        -0.00000000
  17         0.00000000
  18         0.00000000
  19         0.35598323
  20         0.00000000
  21         0.00000000
  22        -0.00000000
  23        -0.00000000
  24         0.03193205
  25         0.00000000
  26         0.00000000
  27         0.00000000
  28         0.00000000
  29         0.00000000
  30        -0.00000000
  31        -0.02630305
  32        -0.01599889
  33         0.05750413
  34        -1.77425403
  35         0.00000000
  36         0.00000000
  37        -0.82637452
  38         0.00000000
  39         0.00000000
  40        -0.00712049
  41        -0.00000000
  42         0.00000000
  43         1.96184480
  44         0.01134832
  45        -0.00000000
  46         0.00000000
  47        -0.00000000
  48        -0.00000000
  49        -0.35593556
  50        -0.00000000
  51        -0.00000000
  52         0.00000000
  53         0.00000000
  54         0.03192354
  55         0.00000000
  56         0.00000000
  57         0.00000000
  58        -0.00000000
  59        -0.00000000
  60         0.00000000
Sym=    15a  
Ene=     0.0000
Spin= Alpha
Occup=    0.00000
   1         0.32875756
   2         1.55511667
   3        -0.09172772
   4        -1.47147120
   5         0.00000000
   6         0.00000000
   7        -0.01700200
   8         0.00000000
   9         0.00000000
  10         0.08755283
  11        -0.00000000
  12        -0.00000000
  13        -0.25872902
  14         0.00868830
  15        -0.00000000
  16         0.00000000
  17        -0.00000000
  18        -0.00000000
  19         0.15124520
  20         0.00000000
  21        -0.00000000
  22         0.00000000
  23        -0.00000000
  24         0.00016789
  25         0.00000000
  26        -0.00000000
  27         0.00000000
  28         0.00000000
  29        -0.00000000
  30         0.00000000
  31         0.32867980
  32         1.55489119
  33        -0.09165248
  34        -1.47066214
  35         0.00000000
  36        -0.00000000
  37         0.01721507
  38         0.00000000
  39        -0.00000000
  40        -0.08752158
  41        -0.00000000
  42         0.00000000
  43         0.25808394
  44         0.00868387
  45        -0.00000000
  46         0.00000000
  47        -0.00000000
  48         0.00000000
  49         0.15132294
  50        -0.00000000
  51        -0.00000000
  52         0.00000000
  53         0.00000000
  54        -0.00017007
  55        -0.00000000
  56         0.00000000
  57         0.00000000
  58         0.00000000
  59         0.00000000
  60         0.00000000
Sym=    16a  
Ene=     0.0000
Spin= Alpha
Occup=    0.00000
   1        -0.00000000
   2        -0.00000000
   3         0.00000000
   4         0.00000000
   5         0.08057887
   6         0.50032492
   7         0.00000000
   8         0.05602398
   9         0.34786035
  10        -0.00000000
  11        -0.22810578
  12        -1.41633901
  13        -0.00000000
  14        -0.00000000
  15         0.00242297
  16         0.01504457
  17        -0.00000000
  18         0.00000000
  19        -0.00000000
  20        -0.01252115
  21        -0.07774547
  22         0.00000000
  23         0.00000000
  24        -0.00000000
  25        -0.00230694
  26        -0.01432408
  27        -0.00000000
  28        -0.00000000
  29        -0.00000000
  30         0.00000002
  31        -0.00000000
  32        -0.00000000
  33         0.00000000
  34         0.00000000
  35        -0.08058032
  36        -0.50033388
  37        -0.00000000
  38        -0.05602358
  39        -0.34785781
  40         0.00000000
  41         0.22810677
  42         1.41634515
  43        -0.00000000
  44        -0.00000000
  45         0.00242307
  46         0.01504517
  47        -0.00000000
  48         0.00000000
  49        -0.00000000
  50        -0.01252159
  51        -0.07774818
  52         0.00000000
  53        -0.00000000
  54         0.00000000
  55         0.00230696
  56         0.01432421
  57         0.00000000
  58         0.00000000
  59        -0.00000001
  60         0.00000008
Sym=    17a  
Ene=     0.0000
Spin= Alpha
Occup=    0.00000
   1        -0.00000000
   2        -0.00000000
   3         0.00000000
   4         0.00000000
   5        -0.50032492
   6         0.08057887
   7         0.00000000
   8        -0.34786035
   9         0.05602398
  10         0.00000000
  11         1.41633901
  12        -0.22810578
  13        -0.00000000
  14        -0.00000000
  15        -0.01504457
  16         0.00242297
  17        -0.00000000
  18        -0.00000000
  19        -0.00000000
  20         0.07774547
  21        -0.01252115
  22        -0.00000000
  23         0.00000000
  24        -0.00000000
  25         0.01432408
  26        -0.00230694
  27         0.00000000
  28        -0.00000000
  29         0.00000002
  30         0.00000000
  31        -0.00000000
  32        -0.00000000
  33         0.00000000
  34         0.00000000
  35         0.50033388
  36        -0.08058032
  37         0.00000000
  38         0.34785781
  39        -0.05602358
  40         0.00000000
  41        -1.41634515
  42         0.22810677
  43        -0.00000000
  44        -0.00000000
  45        -0.01504517
  46         0.00242307
  47        -0.00000000
  48        -0.00000000
  49        -0.00000000
  50         0.07774818
  51        -0.01252159
  52         0.00000000
  53         0.00000000
  54        -0.00000000
  55        -0.01432421
  56         0.00230696
  57        -0.00000000
  58         0.00000000
  59         0.00000008
  60         0.00000001
Sym=    18a  
Ene=     0.0000
Spin= Alpha
Occup=    0.00000
   1        -0.41800284
   2        -1.94684694
   3        -0.04067156
   4         6.46782142
   5         0.00000000
   6         0.00000000
   7        -0.24146034
   8        -0.00000000
   9         0.00000000
  10         0.52598396
  11        -0.00000000
  12        -0.00000000
  13         2.81059345
  14        -0.02324266
  15         0.00000000
  16         0.00000000
  17         0.00000000
  18        -0.00000000
  19         0.44978668
  20        -0.00000000
  21        -0.00000000
  22         0.00000000
  23         0.00000000
  24         0.08683446
  25        -0.00000000
  26         0.00000000
  27         0.00000000
  28         0.00000000
  29         0.00000000
  30        -0.00000000
  31         0.41793962
  32         1.94676134
  33         0.04077211
  34        -6.46783600
  35        -0.00000000
  36         0.00000000
  37        -0.24140187
  38         0.00000000
  39         0.00000000
  40         0.52600406
  41         0.00000000
  42        -0.00000000
  43         2.81046607
  44         0.02323412
  45        -0.00000000
  46        -0.00000000
  47        -0.00000000
  48         0.00000000
  49        -0.44976110
  50         0.00000000
  51         0.00000000
  52         0.00000000
  53         0.00000000
  54         0.08683275
  55        -0.00000000
  56        -0.00000000
  57        -0.00000000
  58        -0.00000000
  59         0.00000000
  60         0.00000000
Sym=    19a  
Ene=     0.0000
Spin= Alpha
Occup=    0.00000
   1         0.00000000
   2         0.00000000
   3         0.00000000
   4        -0.00000000
   5        -0.00000000
   6         0.00000000
   7         0.00000000
   8        -0.00000000