   This run of MOLCAS is using the pymolcas driver

                             OPE
                             OPE          NMOL  CASOP  ENMOLC A   SO
                 OPE        NMOLC        AS  OP EN  MO LC     AS  OP
                OPENM       OL CA        SO  PE NM  OL CA     SOP EN
                OP EN      MO   LC       AS  OP ENMOL  CASO   PENMOL
                OP  EN     MO   LC       AS  OP EN     MO     LC ASO
               OP   E  NMOL  C  AS       OP  EN MO     LC     AS  OP
               OP  E   NMO   LC AS        OPEN  MO     LCASOP EN   M
               O  PEN   MO  LCA  SO
            OPE   NMO   L   CAS    OP
        OPENMOL  CASOP     ENMOL   CASOPE
     OPENMOLCA   SOPENMOLCASOPEN   MOLCASOPE
    OPENMOLCAS   OP           EN   MOL    CAS
    OPENMOLCAS       OP  ENM        O     LCA
    OPENMOLCAS    OPEN  MOLCASO     P  E  NMO
    OPENMOLCAS     OP               E  N  MOL
    OPENMOLCA   SO           PENM   O  L  CAS    OPEN    MO    LCAS
    OPENMOLCA   SOP           ENM   O  L  CAS   OP  EN  MOLC  AS   O
    OPENMOLCA   SOPE           NM      O  LCA   S      OP  EN MO
    OPENMOLC                AS         O  PEN   M      OL  CA  SOPE
    OPENMO        LCASOPE  NMOL        C  ASO   P      ENMOLC     AS
    OPE     NMO      LCA  SO     P     E   NM   OL  CA SO  PE N   MO
          OPENMOLCA            SOPE   NMO        LCAS  O    P  ENMO
     OPENMOLCASOPENMOLCASOPENMOLCASOPENMOLCA
        OPENMOLCASOPENMOLCASOPENMOLCASOPE
            OPENMOLCASOPENMOLCASOPENM
               OPENMOLCASOPENMOLCA        version: o822a959167d23c ?
                   OPENMOLCASO
                       OPE                tag:

 OpenMolcas is free software; you can redistribute it and/or modify it
 under the terms of the GNU Lesser General Public License version 2.1.
 OpenMolcas is distributed in the hope that it will be useful, but it
 is provided "as is" and without any express or implied warranties.
 For more details see the full text of the license in the file
 LICENSE or in <http://www.gnu.org/licenses/>.

                 Copyright (C) The OpenMolcas Authors
           For the author list and the recommended citation,
                   consult the file CONTRIBUTORS.md

           *************************************************
           * pymolcas version py2.28                       *
           *   build c4a6d18ded8cb6cad61d2372a9abd97c      *
           *   (after the EMIL interpreter by V. Veryazov) *
           *************************************************

configuration info
------------------
Host name: mgt (Linux)
C Compiler ID: GNU
C flags: -std=gnu99
Fortran Compiler ID: GNU
Fortran flags: -fno-aggressive-loop-optimizations -cpp -fdefault-integer-8 -fmax-stack-var-size=1048576
Definitions: _MOLCAS_;_I8_;_LINUX_
Parallel: OFF (GA=OFF)


   --------------------------------------------------------------------------------------------------------
  |
  |           Project: n2
  |    Submitted from: /public/home/xzzeng/work/HQC/N2/cc-pvtz/NO/PES/entropy/1.09/results/work_dir/n2/dmrg
  |      Scratch area: /public/home/xzzeng/work/HQC/N2/cc-pvtz/NO/PES/entropy/1.09/results/scratch
  |   Save outputs to: /public/home/xzzeng/work/HQC/N2/cc-pvtz/NO/PES/entropy/1.09/results/work_dir/n2/dmrg
  |            Molcas: /public/home/xzzeng/soft/OpenMolcas/build
  |
  | Scratch area is NOT empty
  |
  |    MOLCAS_DRIVER = /public/home/xzzeng/soft/OpenMolcas/build/pymolcas
  |    MOLCAS_NPROCS = 1
  |    MOLCAS_SOURCE = /public/home/xzzeng/soft/OpenMolcas
  | MOLCAS_STRUCTURE = 0
  |
   --------------------------------------------------------------------------------------------------------

++ ---------   Input file   ---------

&DMRGSCF
ActiveSpaceOptimizer = QCMaquis
DMRGSettings
  nsweeps = 5
  max_bond_dimension = 300
EndDMRGSettings
OOptimizationSettings
  SPIN    = 1
  NACTEL  = 10
  FILEORB = /public/home/xzzeng/work/HQC/N2/cc-pvtz/NO/PES/entropy/1.09/results/work_dir/n2/dmrg/n2.scf.h5_sel
  TYPEINDEX
  CIONLY
EndOOptimizationSettings

-- ----------------------------------

*** symbolic link created: INPORB -> n2.ScfOrb
--- Start Module: dmrgscf at Tue Apr  9 10:40:40 2024 ---

()()()()()()()()()()()()()()()()()()()()()()()()()()()()()()()()()()()()()()()()()()()()()()()()()()

                                              &DMRGSCF

                                   only a single process is used
                       available to each process: 12 GB of memory, 1 thread?
                                             pid: 12211
()()()()()()()()()()()()()()()()()()()()()()()()()()()()()()()()()()()()()()()()()()()()()()()()()()


      DMRGSCF: active space solver is set to qcmaquis
      -------                                --------


      Header of the ONEINT file:
      --------------------------
      
      Integrals generated by Gateway/Seward, Tue Apr  9 10:40:38 2024


      OrdInt status: non-squared


      Cartesian coordinates in Angstrom:
      -----------------------------------------------------
      No.  Label        X            Y            Z        
      -----------------------------------------------------
       1   N1         0.00000000   0.00000000   0.00000000
       2   N2         0.00000000   0.00000000   1.09000000
      -----------------------------------------------------
      Nuclear repulsion energy =   23.78870031

++    Wave function specifications:
      -----------------------------

      Number of closed shell electrons           4
      Number of electrons in active shells      10
      Max number of holes in RAS1 space          0
      Max nr of electrons in RAS3 space          0
      Number of inactive orbitals                2
      Number of active orbitals                  8
      Number of secondary orbitals              50
      Spin quantum number                      0.0
      State symmetry                             1
--

++    Orbital specifications:
      -----------------------

      Symmetry species                           1
                                                 a
      Frozen orbitals                            0
      Inactive orbitals                          2
      Active orbitals                            8
      RAS1 orbitals                              0
      RAS2 orbitals                              8
      RAS3 orbitals                              0
      Secondary orbitals                        50
      Deleted orbitals                           0
      Number of basis functions                 60
--

++    DMRG specifications:
      ----------------------------

      Number of renormalized states              300
      (Max) number of sweeps                     5
      Convergence threshold (sweep tolerance)    0.100E-07
      Jacobi-Davidson threshold                  0.100E-10
      SVD truncation threshold (initial)         1e-50
      SVD truncation threshold (final)           0.100E-10
      Number of root(s) required                 1
      Root chosen for geometry opt.              1
      DMRG root used                             1
         
--

++    Optimization specifications:
      ----------------------------

      RASSCF algorithm: LK Cholesky
      Maximum number of macro iterations       200
      Maximum number of SX iterations          100
      Threshold for RASSCF energy            1.000E-08
      Threshold for max MO rotation          1.000E-01
      Threshold for max BLB element          1.000E-04
      Level shift parameter                  5.000E-01
      Make Quasi-Newton update
--

      The MO-coefficients are taken from the file:
      /public/home/xzzeng/work/HQC/N2/cc-pvtz/NO/PES/entropy/1.09/results/work_dir/n2/dmrg/n2.scf.h5_sel                                                                                                                                                              

      Total molecular charge    0.00

      ************************************************************************************************************************
      *                                                                                                                      *
      *                                            Wave function control section                                             *
      *                                                                                                                      *
      ************************************************************************************************************************


                                         DMRGCI only, no orbital optimization will be done.
                                         --------------------------------------------------

                                             Please cite for the QCMaquis-Molcas driver:

                                    Freitag L.; Keller S.; Knecht S.; Lindh R.; Ma Y.; 
                                    Stein C. J. and Reiher M., in preparation. (2018).
                                    ---------------------------------------------------------------

                                             Please cite for the QCMaquis DMRG software:

                                    S. Keller, M. Dolfi, M. Troyer, M. Reiher,
                                    J. Chem. Phys. 143, 244118 (2015)
                                    ---------------------------------------------------------------



      DMRGCI energy              :    -109.0501039217
      Total time spent (hh:mm:ss):            0:00:02


      Natural orbitals and occupation numbers for root  1
      sym 1:   1.999497   1.990329   1.995399   1.957569   1.957569   0.049065   0.049065   0.001508

      ************************************************************************************************************************
      *                                                                                                                      *
      *                                                    Final results                                                     *
      *                                                                                                                      *
      ************************************************************************************************************************


++    Wave function specifications:
      -----------------------------

      Number of closed shell electrons           4
      Number of electrons in active shells      10
      Max number of holes in RAS1 space          0
      Max nr of electrons in RAS3 space          0
      Number of inactive orbitals                2
      Number of active orbitals                  8
      Number of secondary orbitals              50
      Spin quantum number                      0.0
      State symmetry                             1
--

++    Orbital specifications:
      -----------------------

      Symmetry species                           1
                                                 a
      Frozen orbitals                            0
      Inactive orbitals                          2
      Active orbitals                            8
      RAS1 orbitals                              0
      RAS2 orbitals                              8
      RAS3 orbitals                              0
      Secondary orbitals                        50
      Deleted orbitals                           0
      Number of basis functions                 60
--

++    DMRG specifications:
      ----------------------------

      Number of renormalized states              300
      (Max) number of sweeps                     5
      Convergence threshold (sweep tolerance)    0.100E-07
      Jacobi-Davidson threshold                  0.100E-10
      SVD truncation threshold (initial)         1e-50
      SVD truncation threshold (final)           0.100E-10
      Number of root(s) required                 1
      DMRG root used                             1
      highest root included in the DMRG          1
      Root passed to geometry opt.               1
--

++    Final optimization conditions:
      ------------------------------

      Average CI energy                            -109.05010392
--


      Final state energy(ies):
      ------------------------

::    RASSCF root number  1 Total energy:   -109.05010392

++    Molecular orbitals:
      -------------------

      Pseudonatural active orbitals and approximate occupation numbers




      Molecular orbitals for symmetry species 1: a  


      Orbital                 1         2         3         4         5         6         7         8         9        10
      Energy             0.0000    0.0000    0.0000    0.0000    0.0000    0.0000    0.0000    0.0000    0.0000    0.0000
      Occ. No.           0.0000    0.0000    0.0000    0.0000    0.0000    0.0000    0.0000    0.0000    0.0000    0.0000

     1 N1     1s         0.7023   -0.7113   -0.0248   -0.0043    0.0026   -0.0000    0.0000    0.0000   -0.0000    0.0591
     2 N1     2s         0.0013    0.0009    0.6109   -0.6553    0.2353    0.0000    0.0000   -0.0000    0.0000    0.5109
     3 N1     *s         0.0006   -0.0005   -0.0026   -0.0004    0.0013    0.0000    0.0000   -0.0000    0.0000   -0.0269
     4 N1     *s        -0.0010   -0.0041   -0.1405   -0.0530    0.1796    0.0000    0.0000   -0.0000    0.0000    6.5797
     5 N1     2px       -0.0000    0.0000    0.0000    0.0000   -0.0000   -0.0236    0.6282   -0.4176   -0.4672    0.0000
     6 N1     *px        0.0000   -0.0000    0.0000   -0.0000    0.0000    0.0003   -0.0082    0.0085    0.0095    0.0000
     7 N1     *px        0.0000   -0.0000   -0.0000   -0.0000    0.0000    0.0013   -0.0349   -0.3428   -0.3835   -0.0000
     8 N1     2py       -0.0000    0.0000    0.0000    0.0000   -0.0000    0.6282    0.0236   -0.4672    0.4176    0.0000
     9 N1     *py        0.0000   -0.0000   -0.0000   -0.0000    0.0000   -0.0082   -0.0003    0.0095   -0.0085    0.0000
    10 N1     *py        0.0000   -0.0000   -0.0000   -0.0000    0.0000   -0.0349   -0.0013   -0.3835    0.3428   -0.0000
    11 N1     2pz        0.0050   -0.0035    0.3467    0.3224   -0.7002   -0.0000   -0.0000    0.0000   -0.0000   -0.0534
    12 N1     *pz       -0.0028    0.0022   -0.0431   -0.0104    0.0493    0.0000    0.0000   -0.0000    0.0000    0.3252
    13 N1     *pz       -0.0017   -0.0005   -0.1004   -0.0318    0.0870    0.0000    0.0000    0.0000   -0.0000    3.6980
    14 N1     *d2-       0.0000   -0.0000    0.0000    0.0000   -0.0000   -0.0000   -0.0000   -0.0000   -0.0000    0.0000
    15 N1     *d2-       0.0000    0.0000   -0.0000   -0.0000    0.0000    0.0000    0.0000   -0.0000   -0.0000    0.0000
    16 N1     *d1-       0.0000    0.0000   -0.0000    0.0000   -0.0000    0.0201    0.0008    0.0102   -0.0091   -0.0000
    17 N1     *d1-       0.0000   -0.0000    0.0000   -0.0000   -0.0000    0.0383    0.0014   -0.0075    0.0067    0.0000
    18 N1     *d0        0.0005   -0.0006    0.0203    0.0034   -0.0183   -0.0000   -0.0000    0.0000   -0.0000   -0.0187
    19 N1     *d0       -0.0004   -0.0002    0.0188    0.0081   -0.0158   -0.0000   -0.0000    0.0000   -0.0000    0.3034
    20 N1     *d1+       0.0000   -0.0000   -0.0000    0.0000   -0.0000   -0.0008    0.0201    0.0091    0.0102   -0.0000
    21 N1     *d1+       0.0000    0.0000    0.0000    0.0000   -0.0000   -0.0014    0.0383   -0.0067   -0.0075    0.0000
    22 N1     *d2+      -0.0000    0.0000   -0.0000    0.0000   -0.0000    0.0000   -0.0000    0.0000   -0.0000    0.0000
    23 N1     *d2+      -0.0000    0.0000   -0.0000    0.0000   -0.0000   -0.0000    0.0000    0.0000   -0.0000   -0.0000
    24 N1     *f3-       0.0000   -0.0000    0.0000    0.0000   -0.0000   -0.0000   -0.0000   -0.0000    0.0000   -0.0000
    25 N1     *f2-       0.0000    0.0000   -0.0000    0.0000   -0.0000   -0.0000   -0.0000    0.0000    0.0000   -0.0000
    26 N1     *f1-       0.0000    0.0000   -0.0000   -0.0000   -0.0000    0.0082    0.0003   -0.0005    0.0005   -0.0000
    27 N1     *f0       -0.0002   -0.0004    0.0075   -0.0002   -0.0051   -0.0000   -0.0000    0.0000    0.0000    0.0218
    28 N1     *f1+       0.0000    0.0000   -0.0000    0.0000   -0.0000   -0.0003    0.0082   -0.0005   -0.0005   -0.0000
    29 N1     *f2+       0.0000    0.0000   -0.0000   -0.0000    0.0000    0.0000   -0.0000   -0.0000    0.0000   -0.0000
    30 N1     *f3+      -0.0000    0.0000    0.0000   -0.0000   -0.0000   -0.0000    0.0000    0.0000    0.0000   -0.0000
    31 N2     1s         0.7116    0.7021   -0.0248    0.0043    0.0026    0.0000   -0.0000    0.0000   -0.0000   -0.0590
    32 N2     2s         0.0014   -0.0009    0.6110    0.6553    0.2352   -0.0000   -0.0000    0.0000   -0.0000   -0.5108
    33 N2     *s         0.0006    0.0005   -0.0026    0.0004    0.0013   -0.0000    0.0000   -0.0000    0.0000    0.0269
    34 N2     *s        -0.0009    0.0041   -0.1405    0.0530    0.1796    0.0000    0.0000   -0.0000    0.0000   -6.5797
    35 N2     2px        0.0000    0.0000   -0.0000    0.0000   -0.0000   -0.0236    0.6282    0.4176    0.4672    0.0000
    36 N2     *px       -0.0000   -0.0000    0.0000   -0.0000    0.0000    0.0003   -0.0082   -0.0085   -0.0095    0.0000
    37 N2     *px       -0.0000   -0.0000    0.0000   -0.0000    0.0000    0.0013   -0.0349    0.3428    0.3835   -0.0000
    38 N2     2py        0.0000    0.0000   -0.0000    0.0000   -0.0000    0.6282    0.0236    0.4672   -0.4176    0.0000
    39 N2     *py       -0.0000   -0.0000    0.0000   -0.0000    0.0000   -0.0082   -0.0003   -0.0095    0.0085    0.0000
    40 N2     *py       -0.0000   -0.0000    0.0000   -0.0000    0.0000   -0.0349   -0.0013    0.3835   -0.3428   -0.0000
    41 N2     2pz       -0.0051   -0.0034   -0.3467    0.3224    0.7002    0.0000    0.0000   -0.0000    0.0000   -0.0535
    42 N2     *pz        0.0028    0.0022    0.0430   -0.0104   -0.0493   -0.0000   -0.0000    0.0000   -0.0000    0.3251
    43 N2     *pz        0.0016   -0.0005    0.1004   -0.0318   -0.0870   -0.0000   -0.0000   -0.0000    0.0000    3.6984
    44 N2     *d2-      -0.0000   -0.0000   -0.0000    0.0000    0.0000    0.0000    0.0000   -0.0000   -0.0000    0.0000
    45 N2     *d2-       0.0000    0.0000    0.0000   -0.0000   -0.0000   -0.0000   -0.0000   -0.0000   -0.0000    0.0000
    46 N2     *d1-       0.0000    0.0000    0.0000   -0.0000    0.0000   -0.0201   -0.0008    0.0102   -0.0091    0.0000
    47 N2     *d1-       0.0000   -0.0000    0.0000    0.0000    0.0000   -0.0383   -0.0014   -0.0075    0.0067   -0.0000
    48 N2     *d0        0.0005    0.0006    0.0203   -0.0034   -0.0183   -0.0000   -0.0000    0.0000   -0.0000    0.0187
    49 N2     *d0       -0.0004    0.0002    0.0188   -0.0081   -0.0158    0.0000    0.0000    0.0000   -0.0000   -0.3035
    50 N2     *d1+       0.0000    0.0000    0.0000   -0.0000    0.0000    0.0008   -0.0201    0.0091    0.0102    0.0000
    51 N2     *d1+       0.0000   -0.0000    0.0000   -0.0000    0.0000    0.0014   -0.0383   -0.0067   -0.0075   -0.0000
    52 N2     *d2+      -0.0000    0.0000   -0.0000   -0.0000   -0.0000   -0.0000    0.0000    0.0000   -0.0000   -0.0000
    53 N2     *d2+      -0.0000   -0.0000   -0.0000   -0.0000   -0.0000    0.0000   -0.0000    0.0000   -0.0000    0.0000
    54 N2     *f3-       0.0000   -0.0000    0.0000    0.0000   -0.0000   -0.0000   -0.0000    0.0000   -0.0000    0.0000
    55 N2     *f2-       0.0000   -0.0000   -0.0000    0.0000    0.0000   -0.0000   -0.0000   -0.0000   -0.0000   -0.0000
    56 N2     *f1-      -0.0000   -0.0000    0.0000    0.0000   -0.0000    0.0082    0.0003    0.0005   -0.0005   -0.0000
    57 N2     *f0        0.0002   -0.0004   -0.0075   -0.0002    0.0051    0.0000    0.0000   -0.0000    0.0000    0.0218
    58 N2     *f1+      -0.0000    0.0000    0.0000    0.0000   -0.0000   -0.0003    0.0082    0.0005    0.0005   -0.0000
    59 N2     *f2+       0.0000   -0.0000    0.0000   -0.0000   -0.0000    0.0000   -0.0000    0.0000   -0.0000   -0.0000
    60 N2     *f3+      -0.0000   -0.0000    0.0000    0.0000   -0.0000   -0.0000    0.0000   -0.0000   -0.0000   -0.0000


      Orbital                11        12        13        14        15        16        17        18        19        20
      Energy             0.0000    0.0000    0.0000    0.0000    0.0000    0.0000    0.0000    0.0000    0.0000    0.0000
      Occ. No.           0.0000    0.0000    0.0000    0.0000    0.0000    0.0000    0.0000    0.0000    0.0000    0.0000

     1 N1     1s         0.0636    0.0000   -0.0000    0.3226   -0.0000    0.0000   -0.0815   -0.0000    0.0000    0.0018
     2 N1     2s         0.1658    0.0000   -0.0000    1.5601   -0.0000    0.0000   -0.3947   -0.0000    0.0000    0.5597
     3 N1     *s         0.0308    0.0000   -0.0000   -0.0964    0.0000    0.0000   -0.0302    0.0000   -0.0000    0.0720
     4 N1     *s         0.1915    0.0000   -0.0000   -1.5212   -0.0000   -0.0000    7.3068   -0.0000    0.0000   -9.8691
     5 N1     2px        0.0000   -0.3721    0.0424    0.0000   -0.0060   -0.5829   -0.0000   -0.0000   -0.0000   -0.0000
     6 N1     *px        0.0000   -0.3293    0.0375    0.0000   -0.0025   -0.2453   -0.0000    0.0000    0.0000   -0.0000
     7 N1     *px       -0.0000    0.8236   -0.0938    0.0000    0.0179    1.7287    0.0000    0.0000    0.0000    0.0000
     8 N1     2py        0.0000    0.0424    0.3721    0.0000    0.5829   -0.0060   -0.0000    0.0000   -0.0000   -0.0000
     9 N1     *py        0.0000    0.0375    0.3293    0.0000    0.2453   -0.0025    0.0000   -0.0000    0.0000   -0.0000
    10 N1     *py       -0.0000   -0.0938   -0.8236   -0.0000   -1.7287    0.0179   -0.0000   -0.0000    0.0000    0.0000
    11 N1     2pz        0.3243    0.0000   -0.0000   -0.1416   -0.0000    0.0000    0.4441    0.0000    0.0000    0.7156
    12 N1     *pz        0.2592    0.0000   -0.0000   -0.0763   -0.0000    0.0000    1.1225   -0.0000    0.0000   -1.2479
    13 N1     *pz       -1.3541   -0.0000    0.0000    0.0124   -0.0000   -0.0000    2.3675   -0.0000    0.0000   -4.2734
    14 N1     *d2-      -0.0000   -0.0000    0.0000    0.0000    0.0000   -0.0000   -0.0000   -0.0000   -0.0071    0.0000
    15 N1     *d2-      -0.0000    0.0000   -0.0000   -0.0000    0.0000   -0.0000    0.0000    0.0000    0.6066    0.0000
    16 N1     *d1-       0.0000    0.0017    0.0146   -0.0000    0.0138   -0.0001    0.0000   -0.0000    0.0000   -0.0000
    17 N1     *d1-       0.0000    0.0081    0.0709   -0.0000   -0.2679    0.0028   -0.0000   -0.0000   -0.0000    0.0000
    18 N1     *d0        0.0448    0.0000   -0.0000    0.0073   -0.0000    0.0000    0.0222   -0.0000   -0.0000   -0.0628
    19 N1     *d0       -0.1213   -0.0000    0.0000    0.1375   -0.0000   -0.0000    0.2827   -0.0000    0.0000   -0.9926
    20 N1     *d1+       0.0000   -0.0146    0.0017   -0.0000   -0.0001   -0.0138    0.0000    0.0000    0.0000   -0.0000
    21 N1     *d1+       0.0000   -0.0709    0.0081   -0.0000    0.0028    0.2679   -0.0000   -0.0000    0.0000    0.0000
    22 N1     *d2+      -0.0000   -0.0000   -0.0000   -0.0000   -0.0000   -0.0000    0.0000   -0.0071    0.0000   -0.0000
    23 N1     *d2+       0.0000    0.0000    0.0000    0.0000   -0.0000   -0.0000   -0.0000    0.6066   -0.0000    0.0000
    24 N1     *f3-       0.0000   -0.0000   -0.0000   -0.0000    0.0000   -0.0000    0.0000    0.0000    0.0000   -0.0000
    25 N1     *f2-      -0.0000    0.0000   -0.0000   -0.0000   -0.0000    0.0000    0.0000    0.0000    0.0046   -0.0000
    26 N1     *f1-      -0.0000   -0.0002   -0.0019    0.0000   -0.0394    0.0004   -0.0000    0.0000   -0.0000   -0.0000
    27 N1     *f0       -0.0246   -0.0000    0.0000   -0.0040    0.0000   -0.0000    0.0653   -0.0000   -0.0000   -0.0971
    28 N1     *f1+      -0.0000    0.0019   -0.0002    0.0000    0.0004    0.0394   -0.0000   -0.0000   -0.0000   -0.0000
    29 N1     *f2+      -0.0000    0.0000    0.0000    0.0000    0.0000    0.0000   -0.0000    0.0046   -0.0000    0.0000
    30 N1     *f3+      -0.0000   -0.0000    0.0000   -0.0000    0.0000    0.0000    0.0000    0.0000   -0.0000   -0.0000
    31 N2     1s         0.0636    0.0000   -0.0000    0.3225   -0.0000    0.0000    0.0815   -0.0000    0.0000   -0.0018
    32 N2     2s         0.1658    0.0000   -0.0000    1.5597   -0.0000    0.0000    0.3946   -0.0000    0.0000   -0.5598
    33 N2     *s         0.0308    0.0000   -0.0000   -0.0963    0.0000    0.0000    0.0302   -0.0000    0.0000   -0.0720
    34 N2     *s         0.1921    0.0000   -0.0000   -1.5214    0.0000   -0.0000   -7.3068    0.0000   -0.0000    9.8691
    35 N2     2px        0.0000   -0.3721    0.0424   -0.0000    0.0060    0.5829   -0.0000    0.0000    0.0000   -0.0000
    36 N2     *px        0.0000   -0.3293    0.0375   -0.0000    0.0025    0.2453   -0.0000   -0.0000   -0.0000   -0.0000
    37 N2     *px       -0.0000    0.8236   -0.0938    0.0000   -0.0179   -1.7287    0.0000   -0.0000   -0.0000    0.0000
    38 N2     2py        0.0000    0.0424    0.3721   -0.0000   -0.5829    0.0060   -0.0000   -0.0000    0.0000   -0.0000
    39 N2     *py        0.0000    0.0375    0.3293   -0.0000   -0.2453    0.0025   -0.0000    0.0000   -0.0000   -0.0000
    40 N2     *py       -0.0000   -0.0938   -0.8236    0.0000    1.7287   -0.0179    0.0000    0.0000   -0.0000    0.0000
    41 N2     2pz       -0.3243   -0.0000    0.0000    0.1415    0.0000   -0.0000    0.4441    0.0000    0.0000    0.7155
    42 N2     *pz       -0.2591   -0.0000    0.0000    0.0765   -0.0000   -0.0000    1.1225   -0.0000   -0.0000   -1.2479
    43 N2     *pz        1.3536    0.0000   -0.0000   -0.0123   -0.0000    0.0000    2.3674   -0.0000    0.0000   -4.2733
    44 N2     *d2-      -0.0000    0.0000   -0.0000   -0.0000    0.0000   -0.0000    0.0000   -0.0000   -0.0071    0.0000
    45 N2     *d2-       0.0000   -0.0000    0.0000   -0.0000    0.0000   -0.0000   -0.0000    0.0000    0.6066    0.0000
    46 N2     *d1-      -0.0000   -0.0017   -0.0146    0.0000    0.0138   -0.0001   -0.0000   -0.0000    0.0000    0.0000
    47 N2     *d1-      -0.0000   -0.0081   -0.0709   -0.0000   -0.2679    0.0028    0.0000    0.0000   -0.0000    0.0000
    48 N2     *d0        0.0448    0.0000   -0.0000    0.0073   -0.0000    0.0000   -0.0222    0.0000    0.0000    0.0628
    49 N2     *d0       -0.1214   -0.0000    0.0000    0.1374    0.0000   -0.0000   -0.2827    0.0000   -0.0000    0.9927
    50 N2     *d1+      -0.0000    0.0146   -0.0017   -0.0000   -0.0001   -0.0138   -0.0000    0.0000    0.0000    0.0000
    51 N2     *d1+      -0.0000    0.0709   -0.0081    0.0000    0.0028    0.2679    0.0000   -0.0000   -0.0000   -0.0000
    52 N2     *d2+      -0.0000    0.0000    0.0000   -0.0000   -0.0000   -0.0000   -0.0000   -0.0071    0.0000    0.0000
    53 N2     *d2+       0.0000   -0.0000   -0.0000    0.0000   -0.0000   -0.0000    0.0000    0.6066   -0.0000   -0.0000
    54 N2     *f3-       0.0000   -0.0000   -0.0000   -0.0000   -0.0000    0.0000   -0.0000   -0.0000   -0.0000   -0.0000
    55 N2     *f2-      -0.0000    0.0000   -0.0000   -0.0000    0.0000   -0.0000   -0.0000   -0.0000   -0.0046    0.0000
    56 N2     *f1-      -0.0000   -0.0002   -0.0019    0.0000    0.0394   -0.0004   -0.0000   -0.0000    0.0000   -0.0000
    57 N2     *f0        0.0246    0.0000   -0.0000    0.0040   -0.0000    0.0000    0.0653   -0.0000   -0.0000   -0.0971
    58 N2     *f1+      -0.0000    0.0019   -0.0002   -0.0000   -0.0004   -0.0394   -0.0000    0.0000    0.0000   -0.0000
    59 N2     *f2+      -0.0000    0.0000    0.0000   -0.0000   -0.0000   -0.0000   -0.0000   -0.0046    0.0000    0.0000
    60 N2     *f3+       0.0000   -0.0000    0.0000    0.0000   -0.0000   -0.0000   -0.0000   -0.0000    0.0000    0.0000


      Orbital                21        22        23        24        25        26        27        28        29        30
      Energy             0.0000    0.0000    0.0000    0.0000    0.0000    0.0000    0.0000    0.0000    0.0000    0.0000
      Occ. No.           0.0000    0.0000    0.0000    0.0000    0.0000    0.0000    0.0000    0.0000    0.0000    0.0000

     1 N1     1s         0.0000    0.0000    0.0000    0.0000   -0.4819    0.0000   -0.0000   -0.3381    0.0000    0.0000
     2 N1     2s         0.0000    0.0000    0.0000    0.0000   -1.8278    0.0000   -0.0000   -1.6221    0.0000    0.0000
     3 N1     *s        -0.0000   -0.0000    0.0000   -0.0000   -0.1018    0.0000   -0.0000   -0.1019   -0.0000   -0.0000
     4 N1     *s        -0.0000    0.0000   -0.0000    0.0000    1.2754   -0.0000    0.0000   -5.2161   -0.0000   -0.0000
     5 N1     2px        0.0824    0.1689    0.0000    0.0000   -0.0000   -0.4163    0.0297   -0.0000    0.0114   -2.3763
     6 N1     *px        0.1098    0.2251   -0.0000   -0.0000   -0.0000   -0.5391    0.0384    0.0000   -0.0104    2.1603
     7 N1     *px       -0.0790   -0.1619   -0.0000   -0.0000   -0.0000   -0.9017    0.0642    0.0000   -0.0021    0.4354
     8 N1     2py        0.1689   -0.0824   -0.0000    0.0000   -0.0000    0.0297    0.4163   -0.0000   -2.3763   -0.0114
     9 N1     *py        0.2251   -0.1098    0.0000   -0.0000   -0.0000    0.0384    0.5391    0.0000    2.1603    0.0104
    10 N1     *py       -0.1619    0.0790    0.0000   -0.0000   -0.0000    0.0642    0.9017    0.0000    0.4354    0.0021
    11 N1     2pz        0.0000   -0.0000    0.0000   -0.0000    0.4081   -0.0000    0.0000   -1.1564    0.0000    0.0000
    12 N1     *pz       -0.0000    0.0000   -0.0000    0.0000   -0.6717    0.0000   -0.0000   -0.8040   -0.0000   -0.0000
    13 N1     *pz       -0.0000    0.0000   -0.0000    0.0000    0.9906   -0.0000    0.0000   -2.1282   -0.0000   -0.0000
    14 N1     *d2-      -0.0000   -0.0000   -0.0000    0.0210   -0.0000   -0.0000    0.0000   -0.0000   -0.0000   -0.0000
    15 N1     *d2-       0.0000    0.0000    0.0000   -0.9063    0.0000    0.0000   -0.0000    0.0000   -0.0000   -0.0000
    16 N1     *d1-      -0.0031    0.0015    0.0000   -0.0000    0.0000   -0.0021   -0.0300   -0.0000   -0.0411   -0.0002
    17 N1     *d1-      -0.5813    0.2835    0.0000   -0.0000   -0.0000    0.1263    1.7728    0.0000   -0.0472   -0.0002
    18 N1     *d0       -0.0000    0.0000   -0.0000    0.0000   -0.0226    0.0000   -0.0000    0.0771   -0.0000   -0.0000
    19 N1     *d0       -0.0000    0.0000   -0.0000    0.0000    1.2328   -0.0000    0.0000   -1.3657   -0.0000    0.0000
    20 N1     *d1+      -0.0015   -0.0031   -0.0000   -0.0000    0.0000    0.0300   -0.0021   -0.0000    0.0002   -0.0411
    21 N1     *d1+      -0.2835   -0.5813   -0.0000   -0.0000   -0.0000   -1.7728    0.1263   -0.0000    0.0002   -0.0472
    22 N1     *d2+       0.0000   -0.0000    0.0210    0.0000    0.0000   -0.0000   -0.0000   -0.0000    0.0000   -0.0000
    23 N1     *d2+      -0.0000    0.0000   -0.9063   -0.0000    0.0000    0.0000    0.0000   -0.0000    0.0000   -0.0000
    24 N1     *f3-       0.0000   -0.0000   -0.0000   -0.0000    0.0000   -0.0000   -0.0000    0.0000    0.0000    0.0000
    25 N1     *f2-      -0.0000   -0.0000    0.0000   -0.0059    0.0000   -0.0000    0.0000    0.0000   -0.0000   -0.0000
    26 N1     *f1-       0.0098   -0.0048   -0.0000    0.0000   -0.0000    0.0085    0.1200   -0.0000   -0.1082   -0.0005
    27 N1     *f0        0.0000   -0.0000   -0.0000    0.0000    0.0800   -0.0000    0.0000    0.0370   -0.0000   -0.0000
    28 N1     *f1+       0.0048    0.0098    0.0000    0.0000   -0.0000   -0.1200    0.0085   -0.0000    0.0005   -0.1082
    29 N1     *f2+       0.0000   -0.0000   -0.0059   -0.0000   -0.0000   -0.0000   -0.0000    0.0000    0.0000   -0.0000
    30 N1     *f3+      -0.0000   -0.0000   -0.0000    0.0000    0.0000   -0.0000    0.0000   -0.0000    0.0000   -0.0000
    31 N2     1s        -0.0000    0.0000   -0.0000   -0.0000   -0.4817    0.0000   -0.0000    0.3381    0.0000   -0.0000
    32 N2     2s        -0.0000    0.0000   -0.0000   -0.0000   -1.8269    0.0000   -0.0000    1.6222    0.0000   -0.0000
    33 N2     *s         0.0000    0.0000   -0.0000    0.0000   -0.1019    0.0000   -0.0000    0.1021    0.0000    0.0000
    34 N2     *s         0.0000   -0.0000    0.0000   -0.0000    1.2756   -0.0000    0.0000    5.2160    0.0000    0.0000
    35 N2     2px        0.0824    0.1689    0.0000    0.0000    0.0000    0.4163   -0.0297   -0.0000    0.0114   -2.3763
    36 N2     *px        0.1098    0.2251   -0.0000    0.0000    0.0000    0.5391   -0.0384    0.0000   -0.0104    2.1603
    37 N2     *px       -0.0790   -0.1619   -0.0000   -0.0000    0.0000    0.9017   -0.0642    0.0000   -0.0021    0.4354
    38 N2     2py        0.1689   -0.0824   -0.0000    0.0000    0.0000   -0.0297   -0.4163   -0.0000   -2.3763   -0.0114
    39 N2     *py        0.2251   -0.1098   -0.0000   -0.0000    0.0000   -0.0384   -0.5391    0.0000    2.1603    0.0104
    40 N2     *py       -0.1619    0.0790    0.0000   -0.0000    0.0000   -0.0642   -0.9017   -0.0000    0.4354    0.0021
    41 N2     2pz        0.0000   -0.0000    0.0000   -0.0000   -0.4083    0.0000   -0.0000   -1.1563    0.0000    0.0000
    42 N2     *pz       -0.0000    0.0000   -0.0000    0.0000    0.6713   -0.0000    0.0000   -0.8042   -0.0000   -0.0000
    43 N2     *pz       -0.0000    0.0000   -0.0000    0.0000   -0.9907    0.0000   -0.0000   -2.1281   -0.0000   -0.0000
    44 N2     *d2-       0.0000    0.0000    0.0000   -0.0210   -0.0000   -0.0000    0.0000    0.0000    0.0000    0.0000
    45 N2     *d2-      -0.0000   -0.0000   -0.0000    0.9063    0.0000    0.0000   -0.0000   -0.0000    0.0000    0.0000
    46 N2     *d1-       0.0031   -0.0015   -0.0000    0.0000    0.0000   -0.0021   -0.0300    0.0000    0.0411    0.0002
    47 N2     *d1-       0.5813   -0.2835   -0.0000    0.0000   -0.0000    0.1263    1.7728    0.0000    0.0472    0.0002
    48 N2     *d0        0.0000   -0.0000    0.0000   -0.0000   -0.0226    0.0000   -0.0000   -0.0771    0.0000    0.0000
    49 N2     *d0        0.0000   -0.0000    0.0000   -0.0000    1.2331   -0.0000    0.0000    1.3656    0.0000    0.0000
    50 N2     *d1+       0.0015    0.0031    0.0000    0.0000    0.0000    0.0300   -0.0021    0.0000   -0.0002    0.0411
    51 N2     *d1+       0.2835    0.5813    0.0000    0.0000   -0.0000   -1.7728    0.1263    0.0000   -0.0002    0.0472
    52 N2     *d2+      -0.0000    0.0000   -0.0210   -0.0000    0.0000   -0.0000   -0.0000    0.0000   -0.0000    0.0000
    53 N2     *d2+       0.0000   -0.0000    0.9063    0.0000   -0.0000    0.0000    0.0000    0.0000   -0.0000    0.0000
    54 N2     *f3-       0.0000   -0.0000   -0.0000   -0.0000   -0.0000   -0.0000   -0.0000   -0.0000   -0.0000   -0.0000
    55 N2     *f2-      -0.0000   -0.0000    0.0000   -0.0059    0.0000    0.0000   -0.0000    0.0000   -0.0000   -0.0000
    56 N2     *f1-       0.0098   -0.0048   -0.0000    0.0000    0.0000   -0.0085   -0.1200   -0.0000   -0.1082   -0.0005
    57 N2     *f0       -0.0000    0.0000   -0.0000    0.0000   -0.0800    0.0000   -0.0000    0.0370   -0.0000   -0.0000
    58 N2     *f1+       0.0048    0.0098    0.0000    0.0000    0.0000    0.1200   -0.0085   -0.0000    0.0005   -0.1082
    59 N2     *f2+       0.0000   -0.0000   -0.0059   -0.0000    0.0000    0.0000    0.0000    0.0000    0.0000   -0.0000
    60 N2     *f3+      -0.0000   -0.0000   -0.0000    0.0000    0.0000   -0.0000    0.0000    0.0000   -0.0000    0.0000


      Orbital                31        32        33        34        35        36        37        38        39        40
      Energy             0.0000    0.0000    0.0000    0.0000    0.0000    0.0000    0.0000    0.0000    0.0000    0.0000
      Occ. No.           0.0000    0.0000    0.0000    0.0000    0.0000    0.0000    0.0000    0.0000    0.0000    0.0000

     1 N1     1s        -0.0167    0.0000   -0.0000    0.2289    0.0000    0.0000    0.0000    0.0000    0.0000    0.0000
     2 N1     2s        -0.2149    0.0000   -0.0000    1.7220    0.0000    0.0000    0.0000    0.0000    0.0000    0.0000
     3 N1     *s        -0.1452   -0.0000    0.0000    0.5935    0.0000   -0.0000    0.0000   -0.0000    0.0000    0.0000
     4 N1     *s         0.2108   -0.0000    0.0000    6.5341    0.0000    0.0000    0.0000   -0.0000    0.0000    0.0000
     5 N1     2px        0.0000    0.0102    2.3946   -0.0000    0.0000    0.0000   -0.0000    0.0000   -0.0043   -0.4931
     6 N1     *px        0.0000   -0.0109   -2.5486    0.0000   -0.0000   -0.0000    0.0000   -0.0000    0.0029    0.3385
     7 N1     *px       -0.0000   -0.0019   -0.4452    0.0000    0.0000    0.0000    0.0000   -0.0000    0.0015    0.1773
     8 N1     2py        0.0000   -2.3946    0.0102   -0.0000   -0.0000    0.0000    0.0000    0.0000   -0.4931    0.0043
     9 N1     *py       -0.0000    2.5486   -0.0109    0.0000    0.0000   -0.0000   -0.0000   -0.0000    0.3385   -0.0029
    10 N1     *py       -0.0000    0.4452   -0.0019    0.0000   -0.0000    0.0000   -0.0000   -0.0000    0.1773   -0.0015
    11 N1     2pz       -1.6387    0.0000   -0.0000   -2.0512   -0.0000    0.0000   -0.0000   -0.0000   -0.0000   -0.0000
    12 N1     *pz        1.4715   -0.0000    0.0000    4.5616    0.0000   -0.0000    0.0000    0.0000    0.0000    0.0000
    13 N1     *pz        0.3618   -0.0000    0.0000    3.1920    0.0000    0.0000    0.0000   -0.0000    0.0000    0.0000
    14 N1     *d2-      -0.0000   -0.0000    0.0000   -0.0000    0.0000   -0.1756   -0.0000    0.0000   -0.0000   -0.0000
    15 N1     *d2-       0.0000    0.0000   -0.0000    0.0000   -0.0000    0.1872    0.0000   -0.0000    0.0000    0.0000
    16 N1     *d1-      -0.0000    0.0003   -0.0000   -0.0000    0.0000   -0.0000   -0.0000   -0.0000    0.5281   -0.0046
    17 N1     *d1-      -0.0000    0.4796   -0.0020    0.0000   -0.0000    0.0000    0.0000    0.0000   -0.3248    0.0028
    18 N1     *d0       -0.0698   -0.0000    0.0000    0.0666    0.0000   -0.0000    0.0000   -0.0000    0.0000    0.0000
    19 N1     *d0        0.3206   -0.0000   -0.0000    1.3759    0.0000    0.0000   -0.0000    0.0000    0.0000    0.0000
    20 N1     *d1+      -0.0000   -0.0000   -0.0003   -0.0000   -0.0000   -0.0000    0.0000   -0.0000    0.0046    0.5281
    21 N1     *d1+      -0.0000   -0.0020   -0.4796    0.0000    0.0000    0.0000   -0.0000    0.0000   -0.0028   -0.3248
    22 N1     *d2+      -0.0000    0.0000    0.0000    0.0000   -0.1755   -0.0000    0.0000    0.0000    0.0000   -0.0000
    23 N1     *d2+       0.0000   -0.0000   -0.0000   -0.0000    0.1872    0.0000   -0.0000   -0.0000   -0.0000    0.0000
    24 N1     *f3-      -0.0000    0.0000   -0.0000   -0.0000    0.0000    0.0000    0.0000    0.6747    0.0000   -0.0000
    25 N1     *f2-      -0.0000   -0.0000    0.0000    0.0000    0.0000   -0.5969    0.0000   -0.0000   -0.0000   -0.0000
    26 N1     *f1-       0.0000   -0.1248    0.0005   -0.0000   -0.0000    0.0000   -0.0000   -0.0000    0.3748   -0.0032
    27 N1     *f0       -0.3558   -0.0000    0.0000    0.1683    0.0000    0.0000   -0.0000    0.0000   -0.0000   -0.0000
    28 N1     *f1+       0.0000    0.0005    0.1248   -0.0000    0.0000    0.0000    0.0000   -0.0000    0.0032    0.3748
    29 N1     *f2+      -0.0000    0.0000    0.0000    0.0000   -0.5969   -0.0000   -0.0000   -0.0000    0.0000   -0.0000
    30 N1     *f3+       0.0000    0.0000    0.0000    0.0000    0.0000   -0.0000    0.6747   -0.0000   -0.0000   -0.0000
    31 N2     1s        -0.0167    0.0000   -0.0000   -0.2288   -0.0000    0.0000   -0.0000   -0.0000   -0.0000   -0.0000
    32 N2     2s        -0.2150    0.0000   -0.0000   -1.7219   -0.0000    0.0000   -0.0000   -0.0000   -0.0000   -0.0000
    33 N2     *s        -0.1452   -0.0000    0.0000   -0.5936   -0.0000   -0.0000    0.0000    0.0000   -0.0000   -0.0000
    34 N2     *s         0.2107    0.0000   -0.0000   -6.5342   -0.0000   -0.0000   -0.0000    0.0000   -0.0000   -0.0000
    35 N2     2px        0.0000   -0.0102   -2.3945   -0.0000   -0.0000   -0.0000   -0.0000    0.0000   -0.0043   -0.4931
    36 N2     *px       -0.0000    0.0109    2.5486    0.0000   -0.0000   -0.0000    0.0000   -0.0000    0.0029    0.3385
    37 N2     *px        0.0000    0.0019    0.4452   -0.0000   -0.0000   -0.0000    0.0000   -0.0000    0.0015    0.1773
    38 N2     2py        0.0000    2.3945   -0.0102    0.0000    0.0000   -0.0000    0.0000    0.0000   -0.4931    0.0043
    39 N2     *py       -0.0000   -2.5486    0.0109    0.0000    0.0000   -0.0000   -0.0000   -0.0000    0.3385   -0.0029
    40 N2     *py        0.0000   -0.4452    0.0019   -0.0000    0.0000   -0.0000   -0.0000   -0.0000    0.1773   -0.0015
    41 N2     2pz        1.6387    0.0000    0.0000   -2.0512   -0.0000   -0.0000   -0.0000    0.0000   -0.0000   -0.0000
    42 N2     *pz       -1.4714   -0.0000    0.0000    4.5616    0.0000    0.0000    0.0000   -0.0000    0.0000    0.0000
    43 N2     *pz       -0.3618   -0.0000    0.0000    3.1920    0.0000    0.0000    0.0000   -0.0000    0.0000    0.0000
    44 N2     *d2-      -0.0000   -0.0000    0.0000   -0.0000    0.0000   -0.1756    0.0000   -0.0000    0.0000    0.0000
    45 N2     *d2-       0.0000    0.0000   -0.0000   -0.0000   -0.0000    0.1872   -0.0000    0.0000   -0.0000   -0.0000
    46 N2     *d1-       0.0000    0.0003   -0.0000    0.0000   -0.0000   -0.0000    0.0000    0.0000   -0.5281    0.0046
    47 N2     *d1-      -0.0000    0.4796   -0.0020   -0.0000   -0.0000    0.0000   -0.0000   -0.0000    0.3247   -0.0028
    48 N2     *d0       -0.0698    0.0000    0.0000   -0.0666   -0.0000   -0.0000   -0.0000    0.0000    0.0000   -0.0000
    49 N2     *d0        0.3205    0.0000   -0.0000   -1.3760   -0.0000   -0.0000   -0.0000    0.0000   -0.0000   -0.0000
    50 N2     *d1+      -0.0000   -0.0000   -0.0003    0.0000   -0.0000    0.0000   -0.0000    0.0000   -0.0046   -0.5281
    51 N2     *d1+      -0.0000   -0.0020   -0.4796   -0.0000    0.0000    0.0000    0.0000   -0.0000    0.0028    0.3247
    52 N2     *d2+      -0.0000    0.0000    0.0000   -0.0000   -0.1756   -0.0000   -0.0000   -0.0000   -0.0000    0.0000
    53 N2     *d2+      -0.0000   -0.0000   -0.0000    0.0000    0.1872    0.0000    0.0000    0.0000    0.0000   -0.0000
    54 N2     *f3-       0.0000   -0.0000    0.0000    0.0000   -0.0000   -0.0000    0.0000    0.6747    0.0000   -0.0000
    55 N2     *f2-       0.0000    0.0000   -0.0000    0.0000   -0.0000    0.5969    0.0000   -0.0000    0.0000    0.0000
    56 N2     *f1-       0.0000    0.1248   -0.0005   -0.0000    0.0000   -0.0000   -0.0000   -0.0000    0.3748   -0.0032
    57 N2     *f0        0.3558   -0.0000    0.0000    0.1683    0.0000   -0.0000    0.0000   -0.0000   -0.0000   -0.0000
    58 N2     *f1+       0.0000   -0.0005   -0.1248   -0.0000   -0.0000   -0.0000    0.0000   -0.0000    0.0032    0.3748
    59 N2     *f2+       0.0000   -0.0000   -0.0000   -0.0000    0.5969    0.0000   -0.0000   -0.0000   -0.0000    0.0000
    60 N2     *f3+       0.0000   -0.0000   -0.0000   -0.0000   -0.0000    0.0000    0.6747   -0.0000   -0.0000   -0.0000


      Orbital                41        42        43        44        45        46        47        48        49        50
      Energy             0.0000    0.0000    0.0000    0.0000    0.0000    0.0000    0.0000    0.0000    0.0000    0.0000
      Occ. No.           0.0000    0.0000    0.0000    0.0000    0.0000    0.0000    0.0000    0.0000    0.0000    0.0000

     1 N1     1s        -0.4102    0.0000    0.0000   -0.0000   -0.0000   -0.0000    0.0000    0.0000   -0.0000    0.2695
     2 N1     2s        -0.8106    0.0000    0.0000   -0.0000   -0.0000   -0.0000    0.0000    0.0000   -0.0000    1.2080
     3 N1     *s         0.7711   -0.0000   -0.0000   -0.0000    0.0000    0.0000   -0.0000   -0.0000    0.0000    0.2580
     4 N1     *s         0.4984   -0.0000    0.0000    0.0000    0.0000    0.0000   -0.0000    0.0000    0.0000    1.7921
     5 N1     2px       -0.0000   -0.0000    0.0000   -0.0000   -0.0000   -0.1889   -0.5864    0.0000    0.0000   -0.0000
     6 N1     *px        0.0000    0.0000   -0.0000    0.0000    0.0000    0.4824    1.4973   -0.0000   -0.0000   -0.0000
     7 N1     *px        0.0000    0.0000   -0.0000    0.0000    0.0000    0.2397    0.7442   -0.0000   -0.0000    0.0000
     8 N1     2py       -0.0000   -0.0000   -0.0000   -0.0000    0.0000    0.5864   -0.1889    0.0000   -0.0000   -0.0000
     9 N1     *py        0.0000    0.0000    0.0000    0.0000   -0.0000   -1.4973    0.4824   -0.0000    0.0000   -0.0000
    10 N1     *py        0.0000    0.0000    0.0000    0.0000   -0.0000   -0.7442    0.2397   -0.0000    0.0000    0.0000
    11 N1     2pz       -0.8159    0.0000   -0.0000   -0.0000   -0.0000   -0.0000    0.0000   -0.0000   -0.0000    0.6824
    12 N1     *pz        0.6888   -0.0000    0.0000    0.0000    0.0000    0.0000   -0.0000    0.0000    0.0000    0.6411
    13 N1     *pz       -0.0321   -0.0000    0.0000    0.0000    0.0000    0.0000   -0.0000    0.0000    0.0000    0.7200
    14 N1     *d2-       0.0000   -0.0000    0.0000    0.8039    0.0000    0.0000   -0.0000   -0.8335   -0.0000    0.0000
    15 N1     *d2-      -0.0000    0.0000   -0.0000   -0.3374   -0.0000   -0.0000    0.0000    0.5761    0.0000   -0.0000
    16 N1     *d1-      -0.0000    0.0000    0.0000   -0.0000    0.0000    0.5672   -0.1827    0.0000   -0.0000    0.0000
    17 N1     *d1-       0.0000   -0.0000   -0.0000    0.0000   -0.0000   -1.5223    0.4904   -0.0000    0.0000   -0.0000
    18 N1     *d0        0.6836    0.0000   -0.0000   -0.0000   -0.0000    0.0000   -0.0000    0.0000    0.0000   -0.1423
    19 N1     *d0       -0.5278   -0.0000    0.0000    0.0000    0.0000   -0.0000    0.0000    0.0000    0.0000    0.7919
    20 N1     *d1+      -0.0000    0.0000   -0.0000   -0.0000   -0.0000   -0.1827   -0.5672    0.0000    0.0000    0.0000
    21 N1     *d1+       0.0000   -0.0000    0.0000    0.0000    0.0000    0.4904    1.5223   -0.0000   -0.0000   -0.0000
    22 N1     *d2+      -0.0000   -0.0000   -0.0000   -0.0000    0.8036   -0.0000   -0.0000    0.0000   -0.8339   -0.0000
    23 N1     *d2+       0.0000    0.0000    0.0000    0.0000   -0.3371    0.0000    0.0000   -0.0000    0.5763    0.0000
    24 N1     *f3-       0.0000   -0.7447    0.0000   -0.0000   -0.0000   -0.0000    0.0000    0.0000    0.0000    0.0000
    25 N1     *f2-      -0.0000   -0.0000    0.0000   -0.1549   -0.0000   -0.0000    0.0000    0.1508    0.0000   -0.0000
    26 N1     *f1-       0.0000   -0.0000    0.0000    0.0000   -0.0000   -0.7011    0.2258   -0.0000    0.0000   -0.0000
    27 N1     *f0        0.0194    0.0000   -0.0000    0.0000    0.0000   -0.0000   -0.0000    0.0000   -0.0000    0.8780
    28 N1     *f1+       0.0000    0.0000    0.0000    0.0000    0.0000    0.2258    0.7011   -0.0000   -0.0000   -0.0000
    29 N1     *f2+      -0.0000   -0.0000   -0.0000    0.0000   -0.1548    0.0000    0.0000   -0.0000    0.1509    0.0000
    30 N1     *f3+      -0.0000   -0.0000   -0.7447    0.0000   -0.0000   -0.0000   -0.0000   -0.0000    0.0000   -0.0000
    31 N2     1s        -0.4099   -0.0000    0.0000    0.0000   -0.0000   -0.0000    0.0000   -0.0000    0.0000   -0.2693
    32 N2     2s        -0.8098   -0.0000    0.0000    0.0000    0.0000   -0.0000    0.0000   -0.0000    0.0000   -1.2074
    33 N2     *s         0.7709    0.0000   -0.0000   -0.0000   -0.0000    0.0000   -0.0000    0.0000   -0.0000   -0.2582
    34 N2     *s         0.4984    0.0000   -0.0000   -0.0000   -0.0000    0.0000   -0.0000   -0.0000   -0.0000   -1.7925
    35 N2     2px        0.0000   -0.0000    0.0000    0.0000    0.0000    0.1889    0.5864    0.0000    0.0000   -0.0000
    36 N2     *px       -0.0000    0.0000   -0.0000   -0.0000   -0.0000   -0.4823   -1.4973    0.0000   -0.0000    0.0000
    37 N2     *px       -0.0000    0.0000   -0.0000   -0.0000   -0.0000   -0.2397   -0.7442   -0.0000   -0.0000    0.0000
    38 N2     2py        0.0000   -0.0000   -0.0000    0.0000   -0.0000   -0.5864    0.1889    0.0000   -0.0000   -0.0000
    39 N2     *py       -0.0000    0.0000    0.0000   -0.0000    0.0000    1.4973   -0.4823   -0.0000   -0.0000    0.0000
    40 N2     *py       -0.0000    0.0000    0.0000   -0.0000    0.0000    0.7442   -0.2397   -0.0000    0.0000    0.0000
    41 N2     2pz        0.8160    0.0000   -0.0000    0.0000    0.0000    0.0000   -0.0000    0.0000   -0.0000    0.6823
    42 N2     *pz       -0.6893   -0.0000    0.0000   -0.0000   -0.0000   -0.0000    0.0000    0.0000    0.0000    0.6413
    43 N2     *pz        0.0320   -0.0000    0.0000    0.0000    0.0000   -0.0000    0.0000    0.0000    0.0000    0.7201
    44 N2     *d2-      -0.0000   -0.0000    0.0000    0.8039    0.0000    0.0000   -0.0000    0.8336    0.0000   -0.0000
    45 N2     *d2-       0.0000    0.0000   -0.0000   -0.3373   -0.0000   -0.0000    0.0000   -0.5761   -0.0000    0.0000
    46 N2     *d1-      -0.0000   -0.0000   -0.0000   -0.0000    0.0000    0.5672   -0.1827   -0.0000   -0.0000   -0.0000
    47 N2     *d1-       0.0000    0.0000    0.0000    0.0000   -0.0000   -1.5223    0.4904   -0.0000    0.0000   -0.0000
    48 N2     *d0        0.6837    0.0000    0.0000   -0.0000   -0.0000    0.0000   -0.0000   -0.0000   -0.0000    0.1424
    49 N2     *d0       -0.5276    0.0000   -0.0000    0.0000   -0.0000   -0.0000    0.0000   -0.0000   -0.0000   -0.7920
    50 N2     *d1+      -0.0000   -0.0000    0.0000   -0.0000   -0.0000   -0.1827   -0.5672    0.0000   -0.0000   -0.0000
    51 N2     *d1+       0.0000    0.0000   -0.0000    0.0000    0.0000    0.4904    1.5223   -0.0000   -0.0000    0.0000
    52 N2     *d2+       0.0000   -0.0000   -0.0000   -0.0000    0.8043   -0.0000   -0.0000   -0.0000    0.8332    0.0000
    53 N2     *d2+      -0.0000    0.0000    0.0000    0.0000   -0.3376    0.0000    0.0000    0.0000   -0.5760   -0.0000
    54 N2     *f3-      -0.0000    0.7447   -0.0000    0.0000    0.0000    0.0000   -0.0000    0.0000    0.0000   -0.0000
    55 N2     *f2-      -0.0000    0.0000   -0.0000    0.1548    0.0000    0.0000   -0.0000    0.1508    0.0000   -0.0000
    56 N2     *f1-      -0.0000    0.0000    0.0000   -0.0000    0.0000    0.7011   -0.2259   -0.0000    0.0000    0.0000
    57 N2     *f0       -0.0195    0.0000   -0.0000   -0.0000   -0.0000   -0.0000    0.0000   -0.0000   -0.0000    0.8781
    58 N2     *f1+      -0.0000    0.0000   -0.0000   -0.0000   -0.0000   -0.2259   -0.7011   -0.0000   -0.0000    0.0000
    59 N2     *f2+       0.0000    0.0000    0.0000   -0.0000    0.1549   -0.0000   -0.0000   -0.0000    0.1508    0.0000
    60 N2     *f3+      -0.0000    0.0000    0.7447   -0.0000    0.0000    0.0000    0.0000   -0.0000    0.0000    0.0000


      Orbital                51        52        53        54        55        56        57        58        59        60
      Energy             0.0000    0.0000    0.0000    0.0000    0.0000    0.0000    0.0000    0.0000    0.0000    0.0000
      Occ. No.           0.0000    0.0000    0.0000    0.0000    0.0000    0.0000    0.0000    0.0000    0.0000    0.0000

     1 N1     1s         0.0000   -0.0000   -0.0000   -0.0000    1.4717   -0.4673   -0.0000   -0.0000   -0.8560    4.6448
     2 N1     2s         0.0000   -0.0000    0.0000   -0.0000    3.6988   -0.7288   -0.0000   -0.0000   -1.4276   13.7086
     3 N1     *s        -0.0000    0.0000    0.0000    0.0000   -1.3199    0.7694    0.0000    0.0000    1.9404   -3.9858
     4 N1     *s         0.0000   -0.0000    0.0000    0.0000   -2.4126   -0.6113    0.0000    0.0000    0.6433    0.9671
     5 N1     2px        0.0000    0.0000   -0.0064   -0.3125    0.0000   -0.0000   -0.0062   -0.7266    0.0000    0.0000
     6 N1     *px        0.0000    0.0000    0.0003    0.0163   -0.0000    0.0000    0.0168    1.9665   -0.0000   -0.0000
     7 N1     *px       -0.0000   -0.0000    0.0031    0.1511   -0.0000   -0.0000    0.0038    0.4468   -0.0000   -0.0000
     8 N1     2py       -0.0000    0.0000   -0.3125    0.0064    0.0000   -0.0000   -0.7266    0.0062    0.0000    0.0000
     9 N1     *py       -0.0000    0.0000    0.0163   -0.0003   -0.0000    0.0000    1.9665   -0.0168   -0.0000   -0.0000
    10 N1     *py        0.0000   -0.0000    0.1511   -0.0031   -0.0000   -0.0000    0.4468   -0.0038   -0.0000   -0.0000
    11 N1     2pz        0.0000    0.0000    0.0000    0.0000    1.4717    0.7565    0.0000    0.0000    2.0643   -1.0849
    12 N1     *pz       -0.0000   -0.0000    0.0000    0.0000   -1.1453   -0.3040   -0.0000   -0.0000   -1.5732    7.6035
    13 N1     *pz        0.0000   -0.0000   -0.0000   -0.0000   -1.0959   -0.7767   -0.0000   -0.0000   -0.8911    2.9079
    14 N1     *d2-      -0.0000    0.1249    0.0000    0.0000   -0.0000    0.0000    0.0000    0.0000   -0.0000    0.0000
    15 N1     *d2-      -0.0000    0.2699    0.0000    0.0000    0.0000    0.0000   -0.0000   -0.0000    0.0000    0.0000
    16 N1     *d1-      -0.0000    0.0000   -0.6754    0.0139    0.0000    0.0000    0.7392   -0.0063   -0.0000    0.0000
    17 N1     *d1-       0.0000   -0.0000    0.3975   -0.0082    0.0000   -0.0000    1.1644   -0.0099   -0.0000   -0.0000
    18 N1     *d0        0.0000    0.0000    0.0000    0.0000    0.5049    0.9815   -0.0000   -0.0000    0.1603    0.8958
    19 N1     *d0       -0.0000   -0.0000    0.0000    0.0000   -1.0902   -0.3822   -0.0000   -0.0000   -0.6973    2.7429
    20 N1     *d1+       0.0000    0.0000   -0.0139   -0.6754    0.0000    0.0000    0.0063    0.7392   -0.0000    0.0000
    21 N1     *d1+      -0.0000   -0.0000    0.0082    0.3975    0.0000   -0.0000    0.0099    1.1644   -0.0000   -0.0000
    22 N1     *d2+       0.1249    0.0000   -0.0000    0.0000    0.0000    0.0000   -0.0000    0.0000    0.0000   -0.0000
    23 N1     *d2+       0.2699    0.0000   -0.0000    0.0000   -0.0000   -0.0000    0.0000   -0.0000    0.0000    0.0000
    24 N1     *f3-       0.0000    0.0000    0.0000   -0.0000    0.0000    0.0000   -0.0000    0.0000    0.0000   -0.0000
    25 N1     *f2-      -0.0000    0.9389    0.0000    0.0000    0.0000   -0.0000   -0.0000   -0.0000   -0.0000    0.0000
    26 N1     *f1-       0.0000   -0.0000    0.5775   -0.0119    0.0000   -0.0000    1.2169   -0.0104   -0.0000   -0.0000
    27 N1     *f0       -0.0000   -0.0000    0.0000    0.0000   -0.4956    0.3741   -0.0000   -0.0000   -0.7018    0.8223
    28 N1     *f1+      -0.0000   -0.0000    0.0119    0.5775    0.0000   -0.0000    0.0104    1.2169   -0.0000   -0.0000
    29 N1     *f2+       0.9389    0.0000   -0.0000    0.0000   -0.0000   -0.0000    0.0000   -0.0000    0.0000    0.0000
    30 N1     *f3+       0.0000   -0.0000   -0.0000   -0.0000    0.0000   -0.0000    0.0000    0.0000   -0.0000   -0.0000
    31 N2     1s         0.0000    0.0000    0.0000   -0.0000    1.4705    0.4678   -0.0000   -0.0000   -0.8554   -4.6453
    32 N2     2s         0.0000    0.0000    0.0000   -0.0000    3.6959    0.7302   -0.0000   -0.0000   -1.4255  -13.7097
    33 N2     *s        -0.0000   -0.0000   -0.0000   -0.0000   -1.3186   -0.7696    0.0000    0.0000    1.9399    3.9864
    34 N2     *s        -0.0000    0.0000   -0.0000   -0.0000   -2.4123    0.6102    0.0000    0.0000    0.6431   -0.9664
    35 N2     2px        0.0000    0.0000   -0.0064   -0.3125   -0.0000    0.0000    0.0062    0.7266   -0.0000    0.0000
    36 N2     *px       -0.0000   -0.0000    0.0003    0.0163   -0.0000   -0.0000   -0.0168   -1.9665    0.0000   -0.0000
    37 N2     *px       -0.0000   -0.0000    0.0031    0.1511    0.0000   -0.0000   -0.0038   -0.4468    0.0000   -0.0000
    38 N2     2py       -0.0000    0.0000   -0.3125    0.0064   -0.0000    0.0000    0.7266   -0.0062   -0.0000    0.0000
    39 N2     *py        0.0000   -0.0000    0.0163   -0.0003   -0.0000   -0.0000   -1.9665    0.0168    0.0000   -0.0000
    40 N2     *py        0.0000   -0.0000    0.1511   -0.0031    0.0000   -0.0000   -0.4468    0.0038    0.0000   -0.0000
    41 N2     2pz       -0.0000    0.0000    0.0000    0.0000   -1.4724    0.7553   -0.0000   -0.0000   -2.0643   -1.0849
    42 N2     *pz        0.0000   -0.0000    0.0000    0.0000    1.1468   -0.3030    0.0000    0.0000    1.5720    7.6035
    43 N2     *pz        0.0000   -0.0000   -0.0000   -0.0000    1.0965   -0.7759    0.0000    0.0000    0.8909    2.9078
    44 N2     *d2-       0.0000   -0.1249   -0.0000   -0.0000    0.0000    0.0000    0.0000    0.0000    0.0000   -0.0000
    45 N2     *d2-       0.0000   -0.2699   -0.0000   -0.0000   -0.0000    0.0000   -0.0000   -0.0000   -0.0000   -0.0000
    46 N2     *d1-       0.0000   -0.0000    0.6753   -0.0139    0.0000   -0.0000    0.7393   -0.0063   -0.0000   -0.0000
    47 N2     *d1-      -0.0000    0.0000   -0.3975    0.0082    0.0000    0.0000    1.1644   -0.0099   -0.0000   -0.0000
    48 N2     *d0        0.0000    0.0000   -0.0000   -0.0000    0.5052   -0.9812    0.0000   -0.0000    0.1607   -0.8958
    49 N2     *d0       -0.0000    0.0000    0.0000    0.0000   -1.0907    0.3815   -0.0000   -0.0000   -0.6970   -2.7428
    50 N2     *d1+      -0.0000   -0.0000    0.0139    0.6753    0.0000   -0.0000    0.0063    0.7393   -0.0000   -0.0000
    51 N2     *d1+       0.0000    0.0000   -0.0082   -0.3975    0.0000    0.0000    0.0099    1.1644   -0.0000    0.0000
    52 N2     *d2+      -0.1249   -0.0000    0.0000   -0.0000    0.0000   -0.0000   -0.0000    0.0000    0.0000    0.0000
    53 N2     *d2+      -0.2699   -0.0000    0.0000   -0.0000    0.0000    0.0000    0.0000   -0.0000   -0.0000   -0.0000
    54 N2     *f3-       0.0000    0.0000    0.0000   -0.0000    0.0000    0.0000    0.0000   -0.0000    0.0000   -0.0000
    55 N2     *f2-      -0.0000    0.9389    0.0000    0.0000   -0.0000    0.0000   -0.0000   -0.0000    0.0000    0.0000
    56 N2     *f1-       0.0000   -0.0000    0.5776   -0.0119   -0.0000   -0.0000   -1.2169    0.0104    0.0000    0.0000
    57 N2     *f0       -0.0000   -0.0000    0.0000    0.0000    0.4954    0.3745    0.0000    0.0000    0.7016    0.8223
    58 N2     *f1+      -0.0000   -0.0000    0.0119    0.5776   -0.0000   -0.0000   -0.0104   -1.2169    0.0000    0.0000
    59 N2     *f2+       0.9389    0.0000   -0.0000    0.0000   -0.0000   -0.0000    0.0000   -0.0000    0.0000    0.0000
    60 N2     *f3+       0.0000   -0.0000   -0.0000   -0.0000   -0.0000    0.0000   -0.0000   -0.0000   -0.0000   -0.0000
--

      Von Neumann Entropy (Root   1) =  0.34148


      Mulliken population analysis for root number:  1
      -----------------------------------------------


++    Molecular charges:
      ------------------

      Mulliken charges per centre and basis function type
      ---------------------------------------------------

                N1      N2    
      1s       1.9993  1.9994
      2s       1.7631  1.7632
      2px      1.0232  1.0231
      2pz      1.4827  1.4827
      2py      1.0232  1.0231
      *s      -0.0215 -0.0216
      *px     -0.0529 -0.0529
      *pz     -0.2516 -0.2514
      *py     -0.0529 -0.0529
      *d2+     0.0000  0.0000
      *d1+     0.0306  0.0306
      *d0      0.0194  0.0194
      *d1-     0.0306  0.0306
      *d2-     0.0000  0.0000
      *f3+     0.0000  0.0000
      *f2+     0.0000  0.0000
      *f1+     0.0024  0.0024
      *f0      0.0017  0.0017
      *f1-     0.0024  0.0024
      *f2-     0.0000  0.0000
      *f3-     0.0000  0.0000
      Total    6.9999  7.0001

      N-E      0.0001 -0.0001

      Total electronic charge=   14.000000

      Total            charge=   -0.000000
--



      Expectation values of various properties for root number:  1
      -----------------------------------------------------------

      Properties not supported for DMRGSCF 

++    Molecular properties:
      ---------------------

      Charge (e):
                      =   -0.0000
      Dipole Moment (Debye):
      Origin of the operator (Ang)=    0.0000    0.0000    0.0000
                   X= -7.4827E-08               Y=  5.1690E-07               Z=  3.1236E-05           Total=  3.1241E-05
      Quadrupole Moment (Debye*Ang):
      Origin of the operator (Ang)=    0.0000    0.0000    0.5450
                  XX= -1.0320E+01              XY=  2.7423E-10              XZ=  1.4488E-09              YY= -1.0320E+01
                  YZ=  2.1598E-07              ZZ= -1.1884E+01
      In traceless form (Debye*Ang)
                  XX=  7.8206E-01              XY=  4.1135E-10              XZ=  2.1732E-09              YY=  7.8206E-01
                  YZ=  3.2397E-07              ZZ= -1.5641E+00
--


      Input file to MOLDEN was generated!

      Average orbitals are written to the RASORB file
      Natural orbitals for root   1 are written to the RASORB.1 file
      Spin density orbitals for root   1 are written to the SPDORB.1 file

--- Stop Module: dmrgscf at Tue Apr  9 10:40:43 2024 /rc=_RC_ALL_IS_WELL_ ---
*** files: n2.rasscf.molden n2.RasOrb n2.RasOrb.1 n2.dmrgscf.h5 n2.SpdOrb.1 xmldump
    saved to directory /public/home/xzzeng/work/HQC/N2/cc-pvtz/NO/PES/entropy/1.09/results/work_dir/n2/dmrg
--- Module dmrgscf spent 3 seconds ---

.##################.
.# Happy landing! #.
.##################.

    Timing: Wall=3.22 User=2.19 System=0.08
