[Molden Format]
[N_Atoms]
                    2
[Atoms] (AU)
N1          1      7           0.00000000      0.00000000      0.00000000
N2          2      7           0.00000000      0.00000000      2.05980148
[5D]
[7F]
[Charge] (Mulliken)
   7.4715678094250393E-005
  -7.4715678207937231E-005
[GTO] (AU)
   1
   s  10
  1.142000000E+04  5.229996559E-04
  1.712000000E+03  4.044997339E-03
  3.893000000E+02  2.077498633E-02
  1.100000000E+02  8.072694689E-02
  3.557000000E+01  2.330738467E-01
  1.254000000E+01  4.335007148E-01
  4.644000000E+00  3.474717714E-01
  1.293000000E+00  4.126197285E-02
  5.118000000E-01 -8.507994403E-03
  1.787000000E-01  2.383998432E-03
   s  10
  1.142000000E+04 -1.149999544E-04
  1.712000000E+03 -8.949996452E-04
  3.893000000E+02 -4.623998167E-03
  1.100000000E+02 -1.852799265E-02
  3.557000000E+01 -5.733897727E-02
  1.254000000E+01 -1.320759476E-01
  4.644000000E+00 -1.725099316E-01
  1.293000000E+00  1.518139398E-01
  5.118000000E-01  5.999437621E-01
  1.787000000E-01  3.874618464E-01
   s   1
  1.293000000E+00  1.000000000E+00
   s   1
  1.787000000E-01  1.000000000E+00
   p   5
  2.663000000E+01  1.467000345E-02
  5.948000000E+00  9.176402155E-02
  1.742000000E+00  2.986830701E-01
  5.550000000E-01  4.984871171E-01
  1.725000000E-01  3.370230791E-01
   p   1
  5.550000000E-01  1.000000000E+00
   p   1
  1.725000000E-01  1.000000000E+00
   d   1
  1.654000000E+00  1.000000000E+00
   d   1
  4.690000000E-01  1.000000000E+00
   f   1
  1.093000000E+00  1.000000000E+00
 
   2
   s  10
  1.142000000E+04  5.229996559E-04
  1.712000000E+03  4.044997339E-03
  3.893000000E+02  2.077498633E-02
  1.100000000E+02  8.072694689E-02
  3.557000000E+01  2.330738467E-01
  1.254000000E+01  4.335007148E-01
  4.644000000E+00  3.474717714E-01
  1.293000000E+00  4.126197285E-02
  5.118000000E-01 -8.507994403E-03
  1.787000000E-01  2.383998432E-03
   s  10
  1.142000000E+04 -1.149999544E-04
  1.712000000E+03 -8.949996452E-04
  3.893000000E+02 -4.623998167E-03
  1.100000000E+02 -1.852799265E-02
  3.557000000E+01 -5.733897727E-02
  1.254000000E+01 -1.320759476E-01
  4.644000000E+00 -1.725099316E-01
  1.293000000E+00  1.518139398E-01
  5.118000000E-01  5.999437621E-01
  1.787000000E-01  3.874618464E-01
   s   1
  1.293000000E+00  1.000000000E+00
   s   1
  1.787000000E-01  1.000000000E+00
   p   5
  2.663000000E+01  1.467000345E-02
  5.948000000E+00  9.176402155E-02
  1.742000000E+00  2.986830701E-01
  5.550000000E-01  4.984871171E-01
  1.725000000E-01  3.370230791E-01
   p   1
  5.550000000E-01  1.000000000E+00
   p   1
  1.725000000E-01  1.000000000E+00
   d   1
  1.654000000E+00  1.000000000E+00
   d   1
  4.690000000E-01  1.000000000E+00
   f   1
  1.093000000E+00  1.000000000E+00
 
[MO]
Sym=     1a  
Ene=     0.0000
Spin= Alpha
Occup=    0.00000
   1         0.70231640
   2         0.00126208
   3         0.00064259
   4        -0.00099995
   5        -0.00000000
   6        -0.00000000
   7         0.00503874
   8         0.00000000
   9         0.00000000
  10        -0.00283845
  11         0.00000000
  12         0.00000000
  13        -0.00168947
  14         0.00048484
  15         0.00000000
  16         0.00000000
  17        -0.00000000
  18         0.00000000
  19        -0.00044072
  20         0.00000000
  21         0.00000000
  22        -0.00000000
  23         0.00000000
  24        -0.00023595
  25         0.00000000
  26         0.00000000
  27         0.00000000
  28         0.00000000
  29        -0.00000000
  30         0.00000000
  31         0.71158834
  32         0.00140504
  33         0.00060640
  34        -0.00092111
  35         0.00000000
  36         0.00000000
  37        -0.00507116
  38        -0.00000000
  39        -0.00000000
  40         0.00277856
  41        -0.00000000
  42        -0.00000000
  43         0.00164372
  44         0.00050083
  45         0.00000000
  46         0.00000000
  47        -0.00000000
  48        -0.00000000
  49        -0.00040354
  50         0.00000000
  51         0.00000000
  52        -0.00000000
  53         0.00000000
  54         0.00022158
  55        -0.00000000
  56        -0.00000000
  57         0.00000000
  58         0.00000000
  59        -0.00000000
  60         0.00000000
Sym=     2a  
Ene=     0.0000
Spin= Alpha
Occup=    0.00000
   1        -0.71134371
   2         0.00092095
   3        -0.00053818
   4        -0.00413958
   5         0.00000000
   6         0.00000000
   7        -0.00350226
   8        -0.00000000
   9        -0.00000000
  10         0.00218620
  11        -0.00000000
  12        -0.00000000
  13        -0.00048513
  14        -0.00063947
  15        -0.00000000
  16         0.00000000
  17         0.00000000
  18        -0.00000000
  19        -0.00022908
  20         0.00000000
  21        -0.00000000
  22         0.00000000
  23         0.00000000
  24        -0.00039605
  25         0.00000000
  26         0.00000000
  27         0.00000000
  28         0.00000000
  29         0.00000000
  30        -0.00000000
  31         0.70213302
  32        -0.00090719
  33         0.00051658
  34         0.00413176
  35         0.00000000
  36         0.00000000
  37        -0.00343811
  38        -0.00000000
  39        -0.00000000
  40         0.00215070
  41        -0.00000000
  42        -0.00000000
  43        -0.00050146
  44         0.00063404
  45         0.00000000
  46         0.00000000
  47         0.00000000
  48        -0.00000000
  49         0.00022940
  50        -0.00000000
  51        -0.00000000
  52        -0.00000000
  53         0.00000000
  54        -0.00039831
  55         0.00000000
  56        -0.00000000
  57        -0.00000000
  58        -0.00000000
  59        -0.00000000
  60        -0.00000000
Sym=     3a  
Ene=     0.0000
Spin= Alpha
Occup=    0.00000
   1        -0.02482524
   2         0.61090449
   3        -0.00260870
   4        -0.14049458
   5         0.00000000
   6         0.00000000
   7         0.34668662
   8         0.00000000
   9        -0.00000000
  10        -0.04306546
  11        -0.00000000
  12        -0.00000000
  13        -0.10041454
  14         0.02030114
  15        -0.00000000
  16        -0.00000000
  17        -0.00000000
  18         0.00000000
  19         0.01876112
  20         0.00000000
  21         0.00000000
  22        -0.00000000
  23        -0.00000000
  24         0.00754778
  25        -0.00000000
  26        -0.00000000
  27        -0.00000000
  28        -0.00000000
  29         0.00000000
  30         0.00000000
  31        -0.02481147
  32         0.61095751
  33        -0.00261953
  34        -0.14047542
  35        -0.00000000
  36        -0.00000000
  37        -0.34666605
  38         0.00000000
  39         0.00000000
  40         0.04303328
  41         0.00000000
  42         0.00000000
  43         0.10039389
  44         0.02030244
  45         0.00000000
  46         0.00000000
  47        -0.00000000
  48        -0.00000000
  49         0.01877182
  50         0.00000000
  51         0.00000000
  52        -0.00000000
  53         0.00000000
  54        -0.00754979
  55         0.00000000
  56         0.00000000
  57         0.00000000
  58        -0.00000000
  59         0.00000000
  60         0.00000000
Sym=     4a  
Ene=     0.0000
Spin= Alpha
Occup=    0.00000
   1        -0.00428372
   2        -0.65530887
   3        -0.00042204
   4        -0.05298108
   5         0.00000000
   6         0.00000000
   7         0.32235379
   8        -0.00000000
   9        -0.00000000
  10        -0.01036084
  11        -0.00000000
  12        -0.00000000
  13        -0.03175779
  14         0.00344004
  15         0.00000000
  16         0.00000000
  17         0.00000000
  18         0.00000000
  19         0.00807841
  20         0.00000000
  21        -0.00000000
  22         0.00000000
  23        -0.00000000
  24        -0.00019775
  25         0.00000000
  26        -0.00000000
  27        -0.00000000
  28         0.00000000
  29        -0.00000000
  30         0.00000000
  31         0.00428822
  32         0.65532748
  33         0.00041922
  34         0.05298766
  35         0.00000000
  36         0.00000000
  37         0.32240012
  38        -0.00000000
  39        -0.00000000
  40        -0.01035653
  41        -0.00000000
  42        -0.00000000
  43        -0.03175973
  44        -0.00344200
  45        -0.00000000
  46        -0.00000000
  47        -0.00000000
  48         0.00000000
  49        -0.00808177
  50        -0.00000000
  51         0.00000000
  52        -0.00000000
  53        -0.00000000
  54        -0.00019691
  55         0.00000000
  56         0.00000000
  57        -0.00000000
  58         0.00000000
  59         0.00000000
  60         0.00000000
Sym=     5a  
Ene=     0.0000
Spin= Alpha
Occup=    0.00000
   1         0.00259669
   2         0.23525768
   3         0.00132374
   4         0.17964861
   5        -0.00000000
   6        -0.00000000
   7        -0.70021591
   8         0.00000000
   9         0.00000000
  10         0.04930996
  11         0.00000000
  12         0.00000000
  13         0.08701679
  14        -0.01830206
  15        -0.00000000
  16        -0.00000000
  17        -0.00000000
  18        -0.00000000
  19        -0.01581307
  20        -0.00000000
  21        -0.00000000
  22        -0.00000000
  23         0.00000000
  24        -0.00509445
  25        -0.00000000
  26        -0.00000000
  27         0.00000000
  28        -0.00000000
  29        -0.00000000
  30        -0.00000000
  31         0.00259522
  32         0.23520905
  33         0.00132315
  34         0.17956374
  35        -0.00000000
  36        -0.00000000
  37         0.70016196
  38         0.00000000
  39         0.00000000
  40        -0.04927715
  41         0.00000000
  42         0.00000000
  43        -0.08696961
  44        -0.01830324
  45         0.00000000
  46         0.00000000
  47        -0.00000000
  48         0.00000000
  49        -0.01582087
  50         0.00000000
  51         0.00000000
  52        -0.00000000
  53        -0.00000000
  54         0.00509540
  55        -0.00000000
  56        -0.00000000
  57        -0.00000000
  58         0.00000000
  59        -0.00000000
  60        -0.00000000
Sym=     6a  
Ene=     0.0000
Spin= Alpha
Occup=    0.00000
   1        -0.00000000
   2         0.00000000
   3         0.00000000
   4         0.00000000
   5        -0.02358551
   6         0.62822200
   7        -0.00000000
   8         0.00030621
   9        -0.00815630
  10         0.00000000
  11         0.00130933
  12        -0.03487527
  13         0.00000000
  14        -0.00000000
  15        -0.00075318
  16         0.02006160
  17         0.00000000
  18        -0.00000000
  19        -0.00000000
  20        -0.00143840
  21         0.03831324
  22        -0.00000000
  23         0.00000000
  24        -0.00000000
  25        -0.00030826
  26         0.00821085
  27         0.00000000
  28        -0.00000000
  29        -0.00000000
  30        -0.00000008
  31         0.00000000
  32        -0.00000000
  33        -0.00000000
  34         0.00000000
  35        -0.02358512
  36         0.62821156
  37         0.00000000
  38         0.00030606
  39        -0.00815227
  40        -0.00000000
  41         0.00130927
  42        -0.03487356
  43        -0.00000000
  44        -0.00000000
  45         0.00075316
  46        -0.02006112
  47        -0.00000000
  48         0.00000000
  49         0.00000000
  50         0.00143828
  51        -0.03830980
  52         0.00000000
  53        -0.00000000
  54         0.00000000
  55        -0.00030822
  56         0.00820968
  57         0.00000000
  58        -0.00000000
  59        -0.00000000
  60        -0.00000001
Sym=     7a  
Ene=     0.0000
Spin= Alpha
Occup=    0.00000
   1         0.00000000
   2         0.00000000
   3         0.00000000
   4         0.00000000
   5         0.62822200
   6         0.02358551
   7        -0.00000000
   8        -0.00815630
   9        -0.00030621
  10         0.00000000
  11        -0.03487527
  12        -0.00130933
  13         0.00000000
  14        -0.00000000
  15         0.02006160
  16         0.00075318
  17        -0.00000000
  18        -0.00000000
  19        -0.00000000
  20         0.03831324
  21         0.00143840
  22         0.00000000
  23         0.00000000
  24        -0.00000000
  25         0.00821085
  26         0.00030826
  27        -0.00000000
  28        -0.00000000
  29         0.00000008
  30        -0.00000000
  31        -0.00000000
  32        -0.00000000
  33         0.00000000
  34         0.00000000
  35         0.62821156
  36         0.02358512
  37         0.00000000
  38        -0.00815227
  39        -0.00030606
  40        -0.00000000
  41        -0.03487356
  42        -0.00130927
  43        -0.00000000
  44        -0.00000000
  45        -0.02006112
  46        -0.00075316
  47         0.00000000
  48         0.00000000
  49         0.00000000
  50        -0.03830980
  51        -0.00143828
  52        -0.00000000
  53        -0.00000000
  54         0.00000000
  55         0.00820968
  56         0.00030822
  57        -0.00000000
  58        -0.00000000
  59         0.00000001
  60        -0.00000000
Sym=     8a  
Ene=     0.0000
Spin= Alpha
Occup=    0.00000
   1         0.00000000
   2        -0.00000000
   3        -0.00000000
   4        -0.00000000
   5        -0.41757373
   6        -0.46719821
   7         0.00000000
   8         0.00850983
   9         0.00952114
  10        -0.00000000
  11        -0.34280707
  12        -0.38354628
  13         0.00000000
  14         0.00000000
  15         0.00913050
  16         0.01021557
  17         0.00000000
  18        -0.00000000
  19         0.00000000
  20        -0.00674037
  21        -0.00754140
  22         0.00000000
  23        -0.00000000
  24         0.00000000
  25        -0.00046826
  26        -0.00052390
  27        -0.00000000
  28         0.00000000
  29         0.00000005
  30        -0.00000006
  31         0.00000000
  32         0.00000000
  33        -0.00000000
  34        -0.00000000
  35         0.41757054
  36         0.46719464
  37        -0.00000000
  38        -0.00850648
  39        -0.00951739
  40         0.00000000
  41         0.34280964
  42         0.38354916
  43        -0.00000000
  44         0.00000000
  45         0.00913050
  46         0.01021557
  47         0.00000000
  48        -0.00000000
  49         0.00000000
  50        -0.00673749
  51        -0.00753817
  52         0.00000000
  53        -0.00000000
  54        -0.00000000
  55         0.00046807
  56         0.00052370
  57         0.00000000
  58        -0.00000000
  59        -0.00000005
  60         0.00000006
Sym=     9a  
Ene=     0.0000
Spin= Alpha
Occup=    0.00000
   1        -0.00000000
   2         0.00000000
   3         0.00000000
   4         0.00000000
   5        -0.46719821
   6         0.41757373
   7        -0.00000000
   8         0.00952114
   9        -0.00850983
  10         0.00000000
  11        -0.38354628
  12         0.34280707
  13        -0.00000000
  14        -0.00000000
  15         0.01021557
  16        -0.00913050
  17        -0.00000000
  18        -0.00000000
  19        -0.00000000
  20        -0.00754140
  21         0.00674037
  22        -0.00000000
  23        -0.00000000
  24         0.00000000
  25        -0.00052390
  26         0.00046826
  27         0.00000000
  28         0.00000000
  29         0.00000006
  30         0.00000005
  31        -0.00000000
  32        -0.00000000
  33         0.00000000
  34         0.00000000
  35         0.46719464
  36        -0.41757054
  37         0.00000000
  38        -0.00951739
  39         0.00850648
  40        -0.00000000
  41         0.38354916
  42        -0.34280964
  43         0.00000000
  44        -0.00000000
  45         0.01021557
  46        -0.00913050
  47        -0.00000000
  48        -0.00000000
  49        -0.00000000
  50        -0.00753817
  51         0.00673749
  52        -0.00000000
  53        -0.00000000
  54         0.00000000
  55         0.00052370
  56        -0.00046807
  57        -0.00000000
  58        -0.00000000
  59        -0.00000006
  60        -0.00000005
Sym=    10a  
Ene=     0.0000
Spin= Alpha
Occup=    0.00000
   1         0.05907170
   2         0.51086117
   3        -0.02694551
   4         6.57972059
   5         0.00000000
   6         0.00000000
   7        -0.05337225
   8         0.00000000
   9         0.00000000
  10         0.32521599
  11        -0.00000000
  12        -0.00000000
  13         3.69800649
  14        -0.01865798
  15        -0.00000000
  16        -0.00000000
  17         0.00000000
  18         0.00000000
  19         0.30342962
  20         0.00000000
  21         0.00000000
  22        -0.00000000
  23         0.00000000
  24         0.02175261
  25        -0.00000000
  26        -0.00000000
  27        -0.00000000
  28        -0.00000000
  29        -0.00000000
  30        -0.00000000
  31        -0.05903463
  32        -0.51075836
  33         0.02694384
  34        -6.57970787
  35         0.00000000
  36         0.00000000
  37        -0.05345444
  38         0.00000000
  39         0.00000000
  40         0.32513375
  41        -0.00000000
  42        -0.00000000
  43         3.69839327
  44         0.01867453
  45         0.00000000
  46         0.00000000
  47        -0.00000000
  48         0.00000000
  49        -0.30349148
  50        -0.00000000
  51        -0.00000000
  52         0.00000000
  53         0.00000000
  54         0.02176465
  55        -0.00000000
  56        -0.00000000
  57        -0.00000000
  58        -0.00000000
  59        -0.00000000
  60         0.00000000
Sym=    11a  
Ene=     0.0000
Spin= Alpha
Occup=    0.00000
   1         0.06364385
   2         0.16576258
   3         0.03076321
   4         0.19148473
   5         0.00000000
   6         0.00000000
   7         0.32425317
   8         0.00000000
   9         0.00000000
  10         0.25924206
  11        -0.00000000
  12        -0.00000000
  13        -1.35407798
  14         0.04478784
  15         0.00000000
  16         0.00000000
  17        -0.00000000
  18        -0.00000000
  19        -0.12130624
  20         0.00000000
  21         0.00000000
  22         0.00000000
  23        -0.00000000
  24        -0.02461835
  25        -0.00000000
  26        -0.00000000
  27        -0.00000000
  28        -0.00000000
  29        -0.00000000
  30         0.00000000
  31         0.06362843
  32         0.16583339
  33         0.03078199
  34         0.19207485
  35         0.00000000
  36         0.00000000
  37        -0.32425039
  38         0.00000000
  39         0.00000000
  40        -0.25910387
  41        -0.00000000
  42        -0.00000000
  43         1.35356157
  44         0.04477724
  45        -0.00000000
  46        -0.00000000
  47        -0.00000000
  48        -0.00000000
  49        -0.12135207
  50        -0.00000000
  51        -0.00000000
  52         0.00000000
  53         0.00000000
  54         0.02462878
  55        -0.00000000
  56        -0.00000000
  57        -0.00000000
  58        -0.00000000
  59         0.00000000
  60         0.00000000
Sym=    12a  
Ene=     0.0000
Spin= Alpha
Occup=    0.00000
   1         0.00000000
   2         0.00000000
   3         0.00000000
   4         0.00000000
   5        -0.37212773
   6         0.04236593
   7         0.00000000
   8        -0.32933033
   9         0.03749354
  10         0.00000000
  11         0.82358488
  12        -0.09376333
  13        -0.00000000
  14         0.00000000
  15        -0.01457130
  16         0.00165891
  17        -0.00000000
  18        -0.00000000
  19        -0.00000000
  20        -0.07087258
  21         0.00806869
  22         0.00000000
  23         0.00000000
  24        -0.00000000
  25         0.00190780
  26        -0.00021720
  27         0.00000000
  28         0.00000000
  29        -0.00000011
  30        -0.00000001
  31         0.00000000
  32         0.00000000
  33         0.00000000
  34         0.00000000
  35        -0.37214264
  36         0.04236762
  37        -0.00000000
  38        -0.32933354
  39         0.03749390
  40        -0.00000000
  41         0.82362964
  42        -0.09376843
  43         0.00000000
  44         0.00000000
  45         0.01457025
  46        -0.00165879
  47         0.00000000
  48         0.00000000
  49        -0.00000000
  50         0.07085763
  51        -0.00806699
  52        -0.00000000
  53        -0.00000000
  54         0.00000000
  55         0.00191150
  56        -0.00021762
  57         0.00000000
  58         0.00000000
  59        -0.00000016
  60        -0.00000002
Sym=    13a  
Ene=     0.0000
Spin= Alpha
Occup=    0.00000
   1        -0.00000000
   2        -0.00000000
   3        -0.00000000
   4        -0.00000000
   5         0.04236593
   6         0.37212773
   7        -0.00000000
   8         0.03749354
   9         0.32933033
  10        -0.00000000
  11        -0.09376333
  12        -0.82358488
  13         0.00000000
  14        -0.00000000
  15         0.00165891
  16         0.01457130
  17        -0.00000000
  18         0.00000000
  19         0.00000000
  20         0.00806869
  21         0.07087258
  22         0.00000000
  23        -0.00000000
  24         0.00000000
  25        -0.00021720
  26        -0.00190780
  27         0.00000000
  28        -0.00000000
  29         0.00000001
  30        -0.00000011
  31        -0.00000000
  32        -0.00000000
  33        -0.00000000
  34        -0.00000000
  35         0.04236762
  36         0.37214264
  37         0.00000000
  38         0.03749390
  39         0.32933354
  40         0.00000000
  41        -0.09376843
  42        -0.82362964
  43        -0.00000000
  44        -0.00000000
  45        -0.00165879
  46        -0.01457025
  47         0.00000000
  48        -0.00000000
  49         0.00000000
  50        -0.00806699
  51        -0.07085763
  52        -0.00000000
  53         0.00000000
  54        -0.00000000
  55        -0.00021762
  56        -0.00191150
  57         0.00000000
  58        -0.00000000
  59         0.00000002
  60        -0.00000016
Sym=    14a  
Ene=     0.0000
Spin= Alpha
Occup=    0.00000
   1         0.32259978
   2         1.56007102
   3        -0.09640983
   4        -1.52115552
   5         0.00000000
   6         0.00000000
   7        -0.14155563
   8         0.00000000
   9         0.00000000
  10        -0.07630967
  11         0.00000000
  12        -0.00000000
  13         0.01243388
  14         0.00727628
  15        -0.00000000
  16        -0.00000000
  17        -0.00000000
  18         0.00000000
  19         0.13751369
  20        -0.00000000
  21        -0.00000000
  22         0.00000000
  23        -0.00000000
  24        -0.00398704
  25         0.00000000
  26         0.00000000
  27         0.00000000
  28        -0.00000000
  29        -0.00000000
  30        -0.00000000
  31         0.32247593
  32         1.55971902
  33        -0.09630202
  34        -1.52137749
  35        -0.00000000
  36        -0.00000000
  37         0.14151671
  38        -0.00000000
  39        -0.00000000
  40         0.07652571
  41         0.00000000
  42         0.00000000
  43        -0.01227027
  44         0.00726229
  45        -0.00000000
  46         0.00000000
  47        -0.00000000
  48        -0.00000000
  49         0.13741869
  50         0.00000000
  51        -0.00000000
  52         0.00000000
  53        -0.00000000
  54         0.00400660
  55        -0.00000000
  56         0.00000000
  57        -0.00000000
  58        -0.00000000
  59         0.00000000
  60        -0.00000000
Sym=    15a  
Ene=     0.0000
Spin= Alpha
Occup=    0.00000
   1        -0.00000000
   2        -0.00000000
   3         0.00000000
   4        -0.00000000
   5        -0.00602893
   6         0.58288520
   7        -0.00000000
   8        -0.00253718
   9         0.24529753
  10        -0.00000000
  11         0.01788068
  12        -1.72872838
  13        -0.00000000
  14        -0.00000000
  15        -0.00014259
  16         0.01378559
  17        -0.00000000
  18         0.00000000
  19        -0.00000000
  20         0.00277087
  21        -0.26789119
  22        -0.00000000
  23         0.00000000
  24         0.00000000
  25         0.00040738
  26        -0.03938576
  27         0.00000000
  28        -0.00000000
  29         0.00000000
  30         0.00000012
  31        -0.00000000
  32        -0.00000000
  33         0.00000000
  34         0.00000000
  35         0.00602879
  36        -0.58287186
  37         0.00000000
  38         0.00253716
  39        -0.24529580
  40        -0.00000000
  41        -0.01788046
  42         1.72870714
  43        -0.00000000
  44        -0.00000000
  45        -0.00014258
  46         0.01378455
  47        -0.00000000
  48         0.00000000
  49         0.00000000
  50         0.00277091
  51        -0.26789513
  52        -0.00000000
  53         0.00000000
  54        -0.00000000
  55        -0.00040738
  56         0.03938638
  57        -0.00000000
  58         0.00000000
  59        -0.00000000
  60        -0.00000026
Sym=    16a  
Ene=     0.0000
Spin= Alpha
Occup=    0.00000
   1         0.00000000
   2         0.00000000
   3         0.00000000
   4        -0.00000000
   5        -0.58288520
   6        -0.00602893
   7         0.00000000
   8        -0.24529753
   9        -0.00253718
  10         0.00000000
  11         1.72872838
  12         0.01788068
  13        -0.00000000
  14         0.00000000
  15        -0.01378559
  16        -0.00014259
  17        -0.00000000
  18        -0.00000000
  19        -0.00000000
  20         0.26789119
  21         0.00277087
  22        -0.00000000
  23        -0.00000000
  24        -0.00000000
  25         0.03938576
  26         0.00040738
  27         0.00000000
  28         0.00000000
  29         0.00000012
  30        -0.00000000
  31         0.00000000
  32         0.00000000
  33         0.00000000
  34        -0.00000000
  35         0.58287186
  36         0.00602879
  37        -0.00000000
  38         0.24529580
  39         0.00253716
  40        -0.00000000
  41        -1.72870714
  42        -0.01788046
  43         0.00000000
  44         0.00000000
  45        -0.01378455
  46        -0.00014258
  47        -0.00000000
  48        -0.00000000
  49        -0.00000000
  50         0.26789513
  51         0.00277091
  52        -0.00000000
  53        -0.00000000
  54         0.00000000
  55        -0.03938638
  56        -0.00040738
  57        -0.00000000
  58        -0.00000000
  59        -0.00000026
  60         0.00000000
Sym=    17a  
Ene=     0.0000
Spin= Alpha
Occup=    0.00000
   1        -0.08150235
   2        -0.39466114
   3        -0.03016023
   4         7.30677033
   5        -0.00000000
   6        -0.00000000
   7         0.44413149
   8        -0.00000000
   9         0.00000000
  10         1.12249445
  11         0.00000000
  12        -0.00000000
  13         2.36753585
  14         0.02222708
  15         0.00000000
  16         0.00000000
  17         0.00000000
  18        -0.00000000
  19         0.28271782
  20        -0.00000000
  21        -0.00000000
  22        -0.00000000
  23         0.00000000
  24         0.06529879
  25        -0.00000000
  26        -0.00000000
  27        -0.00000000
  28         0.00000000
  29         0.00000000
  30         0.00000000
  31         0.08147922
  32         0.39460325
  33         0.03018049
  34        -7.30675140
  35        -0.00000000
  36        -0.00000000
  37         0.44414670
  38        -0.00000000
  39        -0.00000000
  40         1.12251911
  41         0.00000000
  42         0.00000000
  43         2.36744554
  44        -0.02222985
  45        -0.00000000
  46        -0.00000000
  47        -0.00000000
  48         0.00000000
  49        -0.28270142
  50         0.00000000
  51         0.00000000
  52         0.00000000
  53        -0.00000000
  54         0.06529841
  55        -0.00000000
  56        -0.00000000
  57        -0.00000000
  58        -0.00000000
  59        -0.00000000
  60        -0.00000000
Sym=    18a  
Ene=     0.0000
Spin= Alpha
Occup=    0.00000
   1        -0.00000000
   2        -0.00000000
   3         0.00000000
   4        -0.00000000
   5        -0.00000000
   6         0.00000000
   7         0.00000000
   8         0.00000000
   9        -0.00000000
  10        -0.00000000
  11         0.00000000
  12        -0.00000000
  13        -0.00000000
  14        -0.00000000
  15         0.00000000
  16        -0.00000000
  17        -0.00713845
  18        -0.00000000
  19        -0.00000000
  20        -0.00000000
  21        -0.00000000
  22         0.60661961
  23         0.00000000
  24        -0.00000000
  25        -0.00000000
  26         0.00000000
  27         0.00462298
  28         0.00000000
  29         0.00000000
  30         0.00000000
  31        -0.00000000
  32        -0.00000000
  33        -0.00000000
  34         0.00000000
  35         0.00000000
  36        -0.00000000
  37         0.00000000
  38        -0.00000000
  39         0.00000000
  40        -0.00000000
  41        -0.00000000
  42         0.00000000
  43        -0.00000000
  44         0.00000000
  45         0.00000000
  46        -0.00000000
  47        -0.00713628
  48        -0.00000000
  49         0.00000000
  50        -0.00000000
  51         0.00000000
  52         0.60663231
  53         0.00000000
  54        -0.00000000
  55         0.00000000
  56        -0.00000000
  57        -0.00462188
  58        -0.00000000
  59        -0.00000000
  60        -0.00000000
Sym=    19a  
Ene=     0.0000
Spin= Alpha
Occup=    0.00000
   1         0.00000000
   2         0.00000000
   3        -0.00000000
   4         0.00000000
   5        -0.00000000
   6        -0.00000000
   7         0.00000000
   8         0.00000000