Generated by MOKIT
SP        RHF                                                         MYBAS
Number of atoms                            I                2
Charge                                     I                0
Multiplicity                               I                1
Number of electrons                        I               14
Number of alpha electrons                  I                7
Number of beta electrons                   I                7
Number of basis functions                  I               60
Number of independent functions            I               60
Atomic numbers                             I   N=           2
           7           7
Nuclear charges                            R   N=           2
  7.00000000E+00  7.00000000E+00
Current cartesian coordinates              R   N=           6
  0.00000000E+00  0.00000000E+00  0.00000000E+00  0.00000000E+00  0.00000000E+00
  1.13383567E+01
Int Atom Types                             I   N=           2
           0           0
Number of contracted shells                I               20
Number of primitive shells                 I               52
Highest angular momentum                   I                3
Largest degree of contraction              I                8
Shell types                                I   N=          20
           0           0           0           0           1           1
           1          -2          -2          -3           0           0
           0           0           1           1           1          -2
          -2          -3
Number of primitives per shell             I   N=          20
           8           8           1           1           3           1
           1           1           1           1           8           8
           1           1           3           1           1           1
           1           1
Shell to atom map                          I   N=          20
           1           1           1           1           1           1
           1           1           1           1           2           2
           2           2           2           2           2           2
           2           2
Primitive exponents                        R   N=          52
  1.14200000E+04  1.71200000E+03  3.89300000E+02  1.10000000E+02  3.55700000E+01
  1.25400000E+01  4.64400000E+00  5.11800000E-01  1.14200000E+04  1.71200000E+03
  3.89300000E+02  1.10000000E+02  3.55700000E+01  1.25400000E+01  4.64400000E+00
  5.11800000E-01  1.29300000E+00  1.78700000E-01  2.66300000E+01  5.94800000E+00
  1.74200000E+00  5.55000000E-01  1.72500000E-01  1.65400000E+00  4.69000000E-01
  1.09300000E+00  1.14200000E+04  1.71200000E+03  3.89300000E+02  1.10000000E+02
  3.55700000E+01  1.25400000E+01  4.64400000E+00  5.11800000E-01  1.14200000E+04
  1.71200000E+03  3.89300000E+02  1.10000000E+02  3.55700000E+01  1.25400000E+01
  4.64400000E+00  5.11800000E-01  1.29300000E+00  1.78700000E-01  2.66300000E+01
  5.94800000E+00  1.74200000E+00  5.55000000E-01  1.72500000E-01  1.65400000E+00
  4.69000000E-01  1.09300000E+00
Contraction coefficients                   R   N=          52
  5.34980914E-04  4.13766310E-03  2.12509149E-02  8.25762988E-02  2.38413273E-01
  4.43431666E-01  3.55431909E-01 -8.70290176E-03 -1.98776985E-04 -1.54700349E-03
 -7.99256330E-03 -3.20255651E-02 -9.91102048E-02 -2.28292775E-01 -2.98182763E-01
  1.03700052E+00  1.00000000E+00  1.00000000E+00  3.98072123E-02  2.49002660E-01
  8.10479727E-01  1.00000000E+00  1.00000000E+00  1.00000000E+00  1.00000000E+00
  1.00000000E+00  5.34980914E-04  4.13766310E-03  2.12509149E-02  8.25762988E-02
  2.38413273E-01  4.43431666E-01  3.55431909E-01 -8.70290176E-03 -1.98776985E-04
 -1.54700349E-03 -7.99256330E-03 -3.20255651E-02 -9.91102048E-02 -2.28292775E-01
 -2.98182763E-01  1.03700052E+00  1.00000000E+00  1.00000000E+00  3.98072123E-02
  2.49002660E-01  8.10479727E-01  1.00000000E+00  1.00000000E+00  1.00000000E+00
  1.00000000E+00  1.00000000E+00
Coordinates of each shell                  R   N=          60
  0.00000000E+00  0.00000000E+00  0.00000000E+00  0.00000000E+00  0.00000000E+00
  0.00000000E+00  0.00000000E+00  0.00000000E+00  0.00000000E+00  0.00000000E+00
  0.00000000E+00  0.00000000E+00  0.00000000E+00  0.00000000E+00  0.00000000E+00
  0.00000000E+00  0.00000000E+00  0.00000000E+00  0.00000000E+00  0.00000000E+00
  0.00000000E+00  0.00000000E+00  0.00000000E+00  0.00000000E+00  0.00000000E+00
  0.00000000E+00  0.00000000E+00  0.00000000E+00  0.00000000E+00  0.00000000E+00
  0.00000000E+00  0.00000000E+00  1.13383567E+01  0.00000000E+00  0.00000000E+00
  1.13383567E+01  0.00000000E+00  0.00000000E+00  1.13383567E+01  0.00000000E+00
  0.00000000E+00  1.13383567E+01  0.00000000E+00  0.00000000E+00  1.13383567E+01
  0.00000000E+00  0.00000000E+00  1.13383567E+01  0.00000000E+00  0.00000000E+00
  1.13383567E+01  0.00000000E+00  0.00000000E+00  1.13383567E+01  0.00000000E+00
  0.00000000E+00  1.13383567E+01  0.00000000E+00  0.00000000E+00  1.13383567E+01
Num ILSW                                   I              100
ILSW                                       I   N=         100
           0           0           0           0           2           0
           0           0           0           0           0          -1
           5           0           0           0           0           0
           0           0           0           0           0           0
           1           1           0           0           0           0
           0           0      100000           0          -1           0
           0           0           0           0           0           0
           0           0           0           1           0           0
           0 -2000000000           1           0           0           0
           0           0           4          52           0           0
           0           0           0           0           0           0
           0           0           0           2           0           1
           0           0           0           0           0           0
           0           0           0           0           0           0
           0           0           0           0           0           0
           0           0           0           0           0           0
           0           0           0           0
Virial Ratio                               R      0.000000000000000E+00
Total Energy                               R      0.000000000000000E+00
Alpha Orbital Energies                     R   N=          60
 -1.58000149E+01 -1.58000035E+01 -1.02333716E+00 -1.02158118E+00 -2.93261980E-01
 -2.91992900E-01 -2.91992900E-01 -2.04557181E-01 -2.04557181E-01 -2.02920184E-01
  6.19122602E-01  6.19868572E-01  6.19868572E-01  6.20014139E-01  6.20014139E-01
  6.21001925E-01  6.70293914E-01  6.71488542E-01  1.22147496E+00  1.22155423E+00
  1.22155423E+00  1.22173698E+00  1.22173698E+00  1.22237716E+00  1.22237716E+00
  1.22256873E+00  1.22256873E+00  1.22265261E+00  3.15349144E+00  3.15394415E+00
  3.15394415E+00  3.15399571E+00  3.15399571E+00  3.15453214E+00  4.17014338E+00
  4.17014721E+00  4.17014721E+00  4.17015786E+00  4.17015786E+00  4.17016797E+00
  4.17016858E+00  4.17016858E+00  4.17017135E+00  4.17017135E+00  4.17017369E+00
  4.17017369E+00  4.17017806E+00  4.17017806E+00  4.74820550E+00  4.74820607E+00
  4.74820607E+00  4.74820744E+00  4.74820799E+00  4.74820799E+00  4.74820808E+00
  4.74820809E+00  4.74820927E+00  4.74820927E+00  5.60729873E+00  5.60752090E+00
Alpha MO coefficients                      R   N=        3600
  6.91146280E-01  1.50113919E-04  2.82625343E-02  1.65602679E-03 -8.92145266E-14
 -1.69130904E-14  3.78203328E-05  4.83379324E-14  9.15155194E-15 -1.35908994E-05
 -1.72660367E-14 -3.27034235E-15  1.34694179E-05 -5.55196542E-07  2.38278287E-12
  4.51744680E-13  2.73523486E-10 -1.22255979E-10  8.82952203E-07  2.59273241E-12
  4.91548352E-13  2.97809914E-10 -1.33111211E-10  8.76005337E-08  1.65545486E-15
  3.13860210E-16  1.45889822E-13 -6.52079098E-14 -5.88143463E-20  8.15487675E-21
  6.92454306E-01  1.50404135E-04  2.83160211E-02  1.65914091E-03  8.94536977E-14
  1.69609810E-14 -3.78772027E-05 -4.84071599E-14 -9.17831978E-15  1.36345366E-05
  1.72835246E-14  3.27697180E-15 -1.34719395E-05 -5.55601090E-07  2.38729156E-12
  4.52599397E-13 -2.74041052E-10  1.22487313E-10  8.81679729E-07  2.59764252E-12
  4.92479134E-13 -2.98373710E-10  1.33363209E-10 -8.75397580E-08 -1.66016480E-15
 -3.14770863E-16  1.46297917E-13 -6.53903537E-14  7.65231855E-20 -1.18322977E-20
  6.92457126E-01  1.53631291E-04  2.83154735E-02  1.64860233E-03 -9.14017713E-14
 -1.71984667E-14  3.01251077E-05  4.67162303E-14  8.86948363E-15 -2.30983797E-05
 -1.28689910E-14 -2.44296434E-15  1.34862881E-06 -4.74368617E-07  2.38687276E-12
  4.52520073E-13  2.74009620E-10 -1.22473264E-10 -9.54876910E-07  2.59937115E-12
  4.92806956E-13  2.98468119E-10 -1.33405406E-10 -3.22545092E-08  2.47922776E-15
  4.70034965E-16  2.15387528E-13 -9.62710929E-14 -5.86593004E-20  8.21147727E-21
 -6.91149105E-01 -1.53347195E-04 -2.82619855E-02 -1.64546825E-03 -9.10488502E-14
 -1.72633415E-14  3.00535234E-05  4.66439009E-14  8.84410053E-15 -2.30726303E-05
 -1.28432528E-14 -2.43507827E-15  1.32315616E-06  4.72827693E-07 -2.38236325E-12
 -4.51665054E-13  2.73491938E-10 -1.22241877E-10  9.56010679E-07 -2.59446427E-12
 -4.91876602E-13  2.97904499E-10 -1.33153487E-10 -3.24195330E-08  2.47611713E-15
  4.69466954E-16 -2.15112030E-13  9.61479933E-14 -7.59951324E-20  1.17339410E-20
  1.24474059E-03  4.21742813E-01  1.18132663E-01  2.52497471E-01  2.87989516E-12
  5.46025836E-13  4.14773341E-04  3.23931254E-12  6.14406354E-13  5.25588344E-04
  2.64138676E-12  5.00784274E-13  1.16273055E-03 -6.61189994E-06  2.40339023E-12
  4.55651750E-13  2.75813728E-10 -1.23279646E-10  9.78093552E-05  3.52774726E-11
  6.68815166E-12  4.04162860E-09 -1.80647471E-09  3.66810342E-06 -7.50008447E-14
 -1.42190565E-14 -7.25512386E-12  3.24280124E-12 -9.13441623E-19 -2.34203747E-20
  1.24475399E-03  4.21746334E-01  1.18133649E-01  2.52499563E-01 -2.87987685E-12
 -5.46021574E-13 -4.14760186E-04 -3.23941886E-12 -6.14193758E-13 -5.25572389E-04
 -2.64138934E-12 -5.00792865E-13 -1.16271540E-03 -6.61141608E-06  2.40340963E-12
  4.55655672E-13 -2.75815807E-10  1.23280571E-10  9.78158827E-05  3.52777713E-11
  6.68820352E-12 -4.04166273E-09  1.80648996E-09 -3.66806619E-06  7.49982208E-14
  1.42183055E-14 -7.25485137E-12  3.24267930E-12  9.43089257E-19 -1.50081275E-19
  1.57558502E-03  4.22628522E-01  1.18255718E-01  2.51462212E-01 -4.39837067E-12
 -8.33980347E-13 -1.66725107E-03 -5.73046249E-12 -1.08653920E-12 -2.01648175E-03
 -2.05944151E-12 -3.90460114E-13 -1.90172514E-03 -1.30137034E-06  2.34699974E-12
  4.44960568E-13  2.70673093E-10 -1.20981951E-10 -8.90523942E-05  3.55107196E-11
  6.73237087E-12  4.05277441E-09 -1.81145652E-09 -2.56009692E-06  3.59575048E-13
  6.81708237E-14  3.17974455E-11 -1.42124095E-11 -7.49457800E-19 -5.69573290E-20
 -1.57557492E-03 -4.22625010E-01 -1.18254735E-01 -2.51460107E-01 -4.39849700E-12
 -8.33850240E-13 -1.66725560E-03 -5.73065588E-12 -1.08639865E-12 -2.01648752E-03
 -2.05951930E-12 -3.90419631E-13 -1.90173530E-03  1.30083338E-06 -2.34697962E-12
 -4.44957291E-13  2.70670620E-10 -1.20980842E-10  8.90458827E-05 -3.55104264E-11
 -6.73231404E-12  4.05274077E-09 -1.81144148E-09 -2.56004819E-06  3.59575816E-13
  6.81713307E-14 -3.17975248E-11  1.42124451E-11 -1.08017168E-18  1.82194511E-19
  1.34313106E-03  4.82663578E-03  9.76998450E-04 -3.91454360E-03 -7.09827708E-09
 -1.34449794E-09 -2.38205945E-01 -9.09195999E-09 -1.72212754E-09 -3.04042431E-01
 -8.56890547E-09 -1.62290628E-09 -3.17481705E-01 -5.08723046E-05 -2.02546120E-12
 -3.83726822E-13 -1.97328335E-11  8.81984883E-12 -1.83649897E-03  3.20495956E-11
  6.08396734E-12  2.68066942E-11 -1.19818019E-11 -4.62655378E-05  5.60775768E-11
  1.06318047E-11  5.01594814E-09 -2.24196341E-09  1.93973882E-16 -4.60134989E-17
  1.34312574E-03  4.82660186E-03  9.76991530E-04 -3.91454032E-03  7.09718207E-09
  1.34677592E-09  2.38207635E-01  9.09056008E-09  1.72504067E-09  3.04044600E-01
  8.56745504E-09  1.62592376E-09  3.17483738E-01 -5.08729204E-05 -2.02521743E-12
 -3.84226269E-13  1.97328149E-11 -8.81991770E-12 -1.83648970E-03  3.20564708E-11
  6.06969671E-12 -2.68062585E-11  1.19815137E-11  4.62532247E-05 -5.60784968E-11
 -1.06315255E-11  5.01598306E-09 -2.24197902E-09  1.94367809E-16 -4.59406424E-17
  2.11007659E-11  1.33679698E-10  2.72465634E-11 -1.35467454E-11  2.33222966E-01
 -4.97546701E-02  6.63399334E-09  2.98199017E-01 -6.36163496E-02  8.50757800E-09
  3.09335161E-01 -6.59920812E-02  7.98564149E-09  2.65458080E-12  5.13585720E-05
 -1.09565917E-05 -2.30737296E-13  5.38807157E-15 -3.58352797E-11  1.46384895E-03
 -3.12290522E-04 -3.96601048E-13  9.11024721E-15  3.07398040E-11  3.52332892E-05
 -7.51650104E-06 -4.44735565E-11  1.01518032E-12 -5.44125618E-09  3.97157876E-09
 -2.10919365E-11 -1.33647861E-10 -2.72403131E-11  1.35211910E-11  2.33220393E-01
 -4.97541212E-02  6.63556114E-09  2.98195721E-01 -6.36156466E-02  8.50957897E-09
  3.09332051E-01 -6.59914178E-02  7.98773399E-09 -2.65498500E-12 -5.13577630E-05
  1.09564191E-05  2.30676324E-13 -5.26186640E-15  3.58233548E-11 -1.46386032E-03
  3.12292948E-04  3.96910138E-13 -9.03646652E-15  3.07394488E-11  3.52205640E-05
 -7.51378644E-06 -4.44728733E-11  1.01503324E-12  5.44119759E-09 -3.97153598E-09
  8.85274623E-12  5.61055926E-11  1.14354693E-11 -5.66625481E-12  4.97542924E-02
  2.33221195E-01  2.78699164E-09  6.36158658E-02  2.98196749E-01  3.57409063E-09
  6.59916247E-02  3.09333021E-01  3.35500473E-09  1.11498601E-12  1.09564809E-05
  5.13580527E-05 -5.28347705E-15 -2.30678698E-13 -1.50371734E-11  3.12292200E-04
  1.46385682E-03 -9.09244567E-15 -3.96810637E-13  1.29080219E-11  7.51582098E-06
  3.52301008E-05 -1.01519360E-12 -4.44731747E-11 -3.97154932E-09 -5.44121580E-09
 -8.86428178E-12 -5.61467057E-11 -1.14436938E-11  5.69971952E-12  4.97544989E-02
  2.33222163E-01  2.78496685E-09  6.36161303E-02  2.98197989E-01  3.57150644E-09
  6.59918743E-02  3.09334192E-01  3.35230218E-09 -1.11451063E-12 -1.09565299E-05
 -5.13582823E-05  5.26530716E-15  2.30678226E-13  1.50526521E-11 -3.12291270E-04
 -1.46385246E-03  9.06401798E-15  3.96802912E-13  1.29074624E-11  7.51446647E-06
  3.52237522E-05 -1.01502713E-12 -4.44732548E-11  3.97156545E-09  5.44123801E-09
  1.60680537E-11  5.55591004E-11  1.10731183E-11 -4.81882026E-11  4.98288846E-02
  2.33128516E-01 -2.61131670E-09  6.36772825E-02  2.97919379E-01 -3.31727029E-09
  6.61888763E-02  3.09670076E-01 -3.84867539E-09 -4.97255066E-13  1.43457384E-05
  6.71177114E-05 -6.50434281E-15 -2.82085587E-13 -2.16173060E-11 -2.41002168E-04
 -1.12754833E-03 -4.74646689E-15 -1.85653488E-13  1.30380835E-11 -6.26993108E-06
 -2.93343918E-05 -1.04880069E-12 -4.51834373E-11 -4.03817366E-09 -5.52799934E-09
  1.60625552E-11  5.55281675E-11  1.10670701E-11 -4.81827484E-11 -4.98286924E-02
 -2.33127610E-01  2.61279292E-09 -6.36770379E-02 -2.97918226E-01  3.31915949E-09
 -6.61885949E-02 -3.09668750E-01  3.85062676E-09 -4.97938339E-13  1.43456816E-05
  6.71174442E-05 -6.54413842E-15 -2.82038139E-13 -2.16085330E-11 -2.41003473E-04
 -1.12755448E-03 -4.27478198E-15 -1.85831294E-13 -1.30384179E-11  6.27131694E-06
  2.93408629E-05  1.04889303E-12  4.51831993E-11 -4.03815769E-09 -5.52797738E-09
 -3.82157365E-11 -1.32119886E-10 -2.63320108E-11  1.14626419E-10 -2.33126860E-01
  4.98285321E-02  6.21448335E-09 -2.97917271E-01  6.36768337E-02  7.89455325E-09
 -3.09667651E-01  6.61883600E-02  9.15881943E-09  1.18390107E-12 -6.71173438E-05
  1.43456602E-05  2.81745523E-13 -6.50310420E-15  5.14111378E-11  1.12755951E-03
 -2.41004547E-04  1.86705083E-13 -4.47018866E-15 -3.10164687E-11  2.93311944E-05
 -6.26925040E-06  4.51829312E-11 -1.04874928E-12  5.52795905E-09 -4.03814434E-09
 -3.82200982E-11 -1.32146481E-10 -2.63374221E-11  1.14630673E-10  2.33129266E-01
 -4.98290449E-02 -6.21319355E-09  2.97920334E-01 -6.36774866E-02 -7.89290254E-09
  3.09671175E-01 -6.61891111E-02 -9.15711380E-09  1.18373673E-12 -6.71178118E-05
  1.43457599E-05  2.82040962E-13 -6.54265565E-15  5.14187452E-11  1.12754331E-03
 -2.41001094E-04  1.85794460E-13 -4.30595566E-15  3.10169612E-11 -2.93440603E-05
  6.27199764E-06 -4.51836475E-11  1.04889763E-12  5.52801762E-09 -4.03818704E-09
  8.63300724E-04  4.97587242E-03  9.84032781E-04 -8.86861813E-04 -6.60025553E-09
 -1.25224887E-09  2.38479140E-01 -8.40078852E-09 -1.59386380E-09  3.05169722E-01
 -9.68471860E-09 -1.83732912E-09  3.15995982E-01  8.99251886E-05 -1.80697163E-12
 -3.42842082E-13 -5.99220002E-12  2.67833595E-12 -1.41320246E-03 -4.42739108E-11
 -8.38926365E-12  5.29342289E-11 -2.36598072E-11 -3.86485662E-05 -5.72496232E-11
 -1.08536308E-11 -5.10711499E-09  2.28271198E-09  1.92573187E-16 -4.57157497E-17
 -8.63310428E-04 -4.97590589E-03 -9.84039448E-04  8.86890986E-04 -6.60118897E-09
 -1.25057252E-09  2.38477565E-01 -8.40198116E-09 -1.59172177E-09  3.05167721E-01
 -9.68596122E-09 -1.83509834E-09  3.15993656E-01 -8.99247582E-05  1.80723668E-12
  3.42364235E-13 -5.99234361E-12  2.67837983E-12  1.41321548E-03  4.42694074E-11
  8.39737352E-12  5.29343950E-11 -2.36599288E-11 -3.86611509E-05 -5.72487578E-11
 -1.08537700E-11  5.10708053E-09 -2.28269658E-09 -1.92180154E-16  4.57776072E-17
  9.41805490E-04  2.86006300E-03  4.56557759E-04 -2.95205114E-03  2.00108099E-08
  3.79352076E-09  1.83542887E-01  6.51441425E-08  1.23496080E-08  5.97467640E-01
 -9.32724030E-08 -1.76819850E-08 -8.48199136E-01  6.18242480E-05  4.81545546E-12
  9.12965056E-13 -1.88880775E-11  8.44223549E-12  3.33378838E-05  1.55487573E-11
  2.94772542E-12  5.19067444E-11 -2.32003273E-11 -2.38388175E-07 -3.45791073E-11
 -6.55583749E-12 -3.15686004E-09  1.41101233E-09 -4.51983230E-16  1.07235168E-16
  9.41720895E-04  2.85982384E-03  4.56516997E-04 -2.95176497E-03 -2.00106640E-08
 -3.79399439E-09 -1.83546209E-01 -6.51436664E-08 -1.23511496E-08 -5.97478451E-01
  9.32717155E-08  1.76841877E-08  8.48214683E-01  6.18250701E-05  4.81532360E-12
  9.12984917E-13  1.88860942E-11 -8.44146095E-12  3.33428194E-05  1.55484104E-11
  2.94788243E-12 -5.19026490E-11  2.31987733E-11  2.45915172E-07  3.45805913E-11
  6.55594041E-12 -3.15691629E-09  1.41103748E-09 -4.52127486E-16  1.07222160E-16
  3.77915337E-10  1.06858665E-09  1.82176353E-10 -1.27852550E-09 -1.79132453E-01
  3.92661272E-02 -1.45142705E-08 -5.83138458E-01  1.27824906E-01 -4.72436653E-08
  8.29207400E-01 -1.81763620E-01  6.78489628E-08 -4.19327449E-12 -4.90553120E-05
  1.07530067E-05  2.86364191E-13 -8.07423737E-15 -2.24663424E-11 -1.01236094E-04
  2.21910909E-05  7.09915357E-13 -2.01024334E-14 -2.01504512E-11 -6.93130979E-07
  1.51922061E-07  2.78883571E-11 -7.93036011E-13  3.39703117E-09 -2.50879720E-09
 -3.77906012E-10 -1.06855694E-09 -1.82171904E-10  1.27849774E-09 -1.79102086E-01
  3.92598209E-02 -1.45174667E-08 -5.83039635E-01  1.27804383E-01 -4.72540695E-08
  8.29066685E-01 -1.81734397E-01  6.78636468E-08  4.19456773E-12  4.90472686E-05
 -1.07513356E-05 -2.86120977E-13  8.42303540E-15  2.24673284E-11  1.01213896E-04
 -2.21864764E-05 -7.10691011E-13  1.99705081E-14 -2.01463498E-11 -6.84696933E-07
  1.50101416E-07  2.78832247E-11 -7.92776736E-13 -3.39645278E-09  2.50838021E-09
  1.61179859E-10  4.55747613E-10  7.76976935E-11 -5.45289616E-10 -3.92599503E-02
 -1.79102677E-01 -6.19217018E-09 -1.27804805E-01 -5.83041562E-01 -2.01553926E-08
  1.81735014E-01  8.29069498E-01  2.89460281E-08 -1.78906026E-12 -1.07513828E-05
 -4.90474838E-05  7.98323001E-15  2.86176963E-13 -9.58268155E-12 -2.21866554E-05
 -1.01214712E-04  2.04790548E-14  7.09652444E-13 -8.59306386E-12 -1.51426033E-07
 -6.90739795E-07  7.93017799E-13  2.78837560E-11  2.50838815E-09  3.39646336E-09
 -1.61189977E-10 -4.55778121E-10 -7.77026389E-11  5.45321578E-10 -3.92659978E-02
 -1.79131863E-01 -6.19034587E-09 -1.27824483E-01 -5.83136532E-01 -2.01494542E-08
  1.81763004E-01  8.29204588E-01  2.89376418E-08  1.78855071E-12  1.07529595E-05
  4.90550968E-05 -8.02294707E-15 -2.85993133E-13  9.58242003E-12  2.21909120E-05
  1.01235278E-04 -2.06532151E-14 -7.09704754E-13 -8.59411670E-12 -1.50597234E-07
 -6.87087109E-07  7.92637692E-13  2.78882770E-11 -2.50878922E-09 -3.39702032E-09
  3.49089921E-11  1.07028865E-10  1.69098887E-11 -1.08212753E-10 -3.82723168E-02
 -1.79469894E-01  7.96559015E-09 -1.24533094E-01 -5.83971470E-01  2.59289365E-08
  1.77021677E-01  8.30105523E-01 -3.65653659E-08  2.59588892E-12 -1.00672879E-05
 -4.72084065E-05  6.29936840E-15  2.84476150E-13  2.35059401E-12 -2.68720926E-05
 -1.26010967E-04  1.56962725E-14  6.77097675E-13 -8.36874832E-12 -3.20909552E-07
 -1.50483779E-06  6.34838742E-13  2.79146742E-11  2.49149502E-09  3.41403993E-09
  3.48785504E-11  1.06943105E-10  1.68954737E-11 -1.08110009E-10  3.82660953E-02
  1.79440737E-01 -7.96699820E-09  1.24512840E-01  5.83876551E-01 -2.59335188E-08
 -1.76992895E-01 -8.29970636E-01  3.65719358E-08  2.59617294E-12 -1.00655720E-05
 -4.72003648E-05  6.27733294E-15  2.84192664E-13  2.35289430E-12 -2.68684776E-05
 -1.25994025E-04  1.52146342E-14  6.77547072E-13  8.36768167E-12  3.20050562E-07
  1.50080856E-06 -6.35064987E-13 -2.79098719E-11  2.49108998E-09  3.41348530E-09
 -8.30798592E-11 -2.54735568E-10 -4.02440188E-11  2.57514360E-10  1.79440122E-01
 -3.82659642E-02 -1.89770957E-08  5.83874553E-01 -1.24512414E-01 -6.17726854E-08
 -8.29967864E-01  1.76992303E-01  8.71129689E-08 -6.18422958E-12  4.72002617E-05
 -1.00655500E-05 -2.84480555E-13  6.77699874E-15 -5.60362819E-12  1.25993628E-04
 -2.68683930E-05 -6.77351907E-13  1.49932295E-14  1.99309942E-11  1.50685065E-06
 -3.21339050E-07 -2.79095813E-11  6.34650587E-13 -3.41347289E-09  2.49108110E-09
 -8.31559896E-11 -2.54951574E-10 -4.02812127E-11  2.57772781E-10 -1.79470508E-01
  3.82724478E-02  1.89747253E-08 -5.83973468E-01  1.24533520E-01  6.17649706E-08
  8.30108295E-01 -1.77022268E-01 -8.71019016E-08 -6.18344983E-12  4.72085096E-05
 -1.00673099E-05 -2.84453838E-13  7.20082724E-15 -5.59998633E-12  1.26011364E-04
 -2.68721772E-05 -6.77296878E-13  1.40389555E-14 -1.99352403E-11 -1.49879469E-06
  3.19620848E-07  2.79146850E-11 -6.34991709E-13 -3.41405202E-09  2.49150404E-09
  4.76808327E-03  1.34699226E-02  2.29336176E-03 -1.61309943E-02  1.57024566E-08
  2.97718425E-09 -1.83434878E-01  5.11159239E-08  9.69157346E-09 -5.96707511E-01
 -7.20646563E-08 -1.36634529E-08  8.49037818E-01 -5.13121997E-05  3.62988910E-12
  6.88421061E-13 -1.02660207E-10  4.58858006E-11 -2.51710099E-04  1.39755229E-11
  2.64976685E-12  2.57023975E-10 -1.14881356E-10 -3.04948810E-06  3.47305393E-11
  6.58439053E-12  3.14537154E-09 -1.40587735E-09 -3.62351710E-16  8.59912629E-17
 -4.76809736E-03 -1.34699660E-02 -2.29336863E-03  1.61310379E-02  1.57026455E-08
  2.97686496E-09 -1.83431506E-01  5.11165376E-08  9.69053517E-09 -5.96696532E-01
 -7.20655226E-08 -1.36619869E-08  8.49022383E-01  5.13111965E-05 -3.62998157E-12
 -6.88159577E-13 -1.02660478E-10  4.58858484E-11  2.51708131E-04 -1.39756871E-11
 -2.64951575E-12  2.57024393E-10 -1.14881426E-10 -3.04192243E-06  3.47292006E-11
  6.58427123E-12 -3.14531287E-09  1.40585113E-09  3.62229050E-16 -8.60009411E-17
 -3.46372274E-01 -9.94580562E-01 -1.76455389E-01  1.18464410E+00  8.05234916E-12
  1.52658282E-12 -3.81755468E-04  2.41761898E-11  4.58331540E-12  3.80318267E-04
 -3.18404761E-11 -6.03638904E-12 -3.49788467E-03 -5.88652958E-06  6.69814120E-11
  1.26988561E-11  7.70061598E-09 -3.44192135E-09  2.98957798E-04 -1.82522068E-10
 -3.46037734E-11 -2.10455556E-08  9.40666958E-09  3.46689463E-06  1.80178685E-13
  3.41596799E-14  1.57905857E-11 -7.05787156E-12 -3.77399081E-19 -1.33018123E-19
 -3.46375614E-01 -9.94590151E-01 -1.76457092E-01  1.18465554E+00 -8.05006146E-12
 -1.52627091E-12  3.81773611E-04 -2.41674189E-11 -4.58205953E-12 -3.80251410E-04
  3.18281635E-11  6.03448708E-12  3.49777308E-03 -5.87268018E-06  6.69820611E-11
  1.26989226E-11 -7.70069007E-09  3.44195452E-09  2.98917731E-04 -1.82523818E-10
 -3.46041302E-11  2.10457592E-08 -9.40676037E-09 -3.46690118E-06 -1.80180045E-13
 -3.41599842E-14  1.57914365E-11 -7.05825118E-12  3.61226535E-19 -8.05692227E-20
 -3.46292031E-01 -9.94091761E-01 -1.76407041E-01  1.18477957E+00  1.90508293E-12
  3.61243380E-13 -2.05651856E-03  6.12817693E-12  1.16236253E-12 -7.44795020E-03
 -5.32955794E-12 -1.01106919E-12  1.22418129E-02  7.47584859E-06  6.69893859E-11
  1.27002745E-11  7.70456538E-09 -3.44368671E-09 -2.67939749E-04 -1.83231739E-10
 -3.47384026E-11 -2.11184347E-08  9.43924368E-09 -3.45895631E-06  3.34335208E-13
  6.33855495E-14  2.99414104E-11 -1.33828236E-11 -3.90459471E-19 -1.25083895E-19
  3.46288688E-01  9.94082163E-01  1.76405340E-01 -1.18476814E+00  1.89654449E-12
  3.59634934E-13 -2.05651345E-03  6.10176251E-12  1.15703455E-12 -7.44794919E-03
 -5.29192876E-12 -1.00357294E-12  1.22418407E-02 -7.48968276E-06 -6.69887387E-11
 -1.27001885E-11  7.70449096E-09 -3.44365339E-09  2.67980289E-04  1.83230007E-10
  3.47380080E-11 -2.11182327E-08  9.43915363E-09 -3.45891639E-06  3.34332376E-13
  6.33853458E-14 -2.99414044E-11  1.33828202E-11 -4.65355058E-19  1.06136100E-19
  1.41810617E-04  3.65238023E-04  6.73075684E-05 -5.37401160E-04 -1.74132105E-11
 -3.30622641E-12 -6.43935355E-04 -1.70453253E-11 -3.23847392E-12 -8.51937652E-04
 -3.69859832E-11 -7.01706693E-12 -7.63229753E-04 -1.35081257E-02  7.33204461E-10
  1.38881419E-10 -2.04637302E-07  9.14661353E-08  7.14042191E-01 -3.82192522E-08
 -7.23928959E-09  1.06939312E-05 -4.77983510E-06  8.92928451E-05 -3.00512058E-12
 -5.68967689E-13  6.83275774E-10 -3.05401781E-10 -6.72052301E-18  1.67770898E-18
  1.41781993E-04  3.65175244E-04  6.73141244E-05 -5.37349591E-04  1.74334511E-11
  3.30003617E-12  6.43938718E-04  1.70730829E-11  3.22983221E-12  8.51940561E-04
  3.70048981E-11  7.01076458E-12  7.63239558E-04 -1.35079873E-02  7.32713353E-10
  1.39037387E-10  2.04658535E-07 -9.14756109E-08  7.14035109E-01 -3.81932982E-08
 -7.24752589E-09 -1.06950520E-05  4.78033530E-06 -8.92922476E-05  3.00211154E-12
  5.69923629E-13  6.83372873E-10 -3.05445112E-10 -7.19697770E-18  1.69541275E-18
  1.41057063E-10  3.09187571E-10 -3.26882331E-11 -2.52997617E-10  5.44023517E-04
  1.03135409E-04  1.90592560E-11  7.44667105E-04  1.41174163E-04  1.75587057E-11
  5.20665927E-04  9.87038403E-05  5.25877694E-11 -7.43864127E-10  1.32704492E-02
  2.51599611E-03 -1.59492266E-09 -6.27320703E-10  3.87728073E-08 -7.01535231E-01
 -1.33006708E-01  8.34281186E-08  3.28142559E-08  2.74068926E-12 -8.12825376E-05
 -1.54103890E-05  5.39981888E-12  2.12382290E-12 -2.12615843E-11  5.04489674E-12
 -1.41066408E-10 -3.09210079E-10  3.26866556E-11  2.53024976E-10  5.44016573E-04
  1.03140050E-04  1.90359807E-11  7.44660031E-04  1.41179071E-04  1.75276731E-11
  5.20651551E-04  9.87137385E-05  5.25607962E-11  7.44349924E-10 -1.32707351E-02
 -2.51579915E-03  1.59531438E-09  6.27425949E-10 -3.87985158E-08  7.01550276E-01
  1.32996455E-01 -8.34487989E-08 -3.28198161E-08  2.74387655E-12 -8.12835815E-05
 -1.54096157E-05  5.40177571E-12  2.12441171E-12  2.12613999E-11 -5.04469868E-12
 -4.73357728E-15 -1.09589487E-14  3.13728616E-18  1.16032089E-14  1.03140090E-04
 -5.44016786E-04  6.42405867E-15  1.41179073E-04 -7.44660044E-04  8.51062846E-15
  9.87137598E-05 -5.20651664E-04  7.47514867E-15  1.37068776E-13  2.51579875E-03
 -1.32707330E-02 -6.27257236E-10  1.59506831E-09 -7.25005647E-12 -1.32996410E-01
  7.01550038E-01  3.28109083E-08 -8.34358175E-08 -1.02187553E-15 -1.54096258E-05
  8.12836350E-05  2.12367071E-12 -5.40057542E-12  5.04468900E-12  2.12612698E-11
 -4.00186045E-15 -9.33396580E-15 -1.40207914E-16  1.02280793E-14  1.03135368E-04
 -5.44023304E-04 -6.40776365E-15  1.41174160E-04 -7.44667092E-04 -8.64966045E-15
  9.87038189E-05 -5.20665814E-04 -7.76308585E-15  1.33662811E-13 -2.51599651E-03
  1.32704514E-02  6.27484938E-10 -1.59518543E-09 -7.07493163E-12  1.33006753E-01
 -7.01535469E-01 -3.28229322E-08  8.34419922E-08  7.69421118E-16 -1.54103789E-05
  8.12824842E-05  2.12462848E-12 -5.40106296E-12 -5.04490101E-12 -2.12615769E-11
 -2.01465089E-08 -4.50152506E-08  2.73767233E-09  4.19978219E-08 -3.30507256E-11
  2.29878029E-11  6.01730003E-09 -3.64487670E-11  2.53519490E-11  5.91136650E-09
 -7.00341595E-11  4.87097130E-11  1.53498837E-08 -2.20837504E-07  1.39299849E-09
 -9.68778822E-10 -1.23298889E-02  5.51105359E-03  1.15369258E-05 -7.28462262E-08
  5.06618232E-08  6.51867734E-01 -2.91363373E-01  8.73285446E-10 -5.24777612E-12
  3.64957314E-12  5.71814512E-05 -2.55582223E-05 -4.66251274E-13  1.10551407E-13
  2.01483805E-08  4.50195070E-08 -2.73781162E-09 -4.20020229E-08  3.30690691E-11
 -2.29977897E-11  6.01890475E-09  3.64737724E-11 -2.53656556E-11  5.91348275E-09
  7.00524125E-11 -4.87192481E-11  1.53517821E-08  2.20803891E-07  1.39254490E-09
 -9.68534854E-10 -1.23305953E-02  5.51136931E-03 -1.15351453E-05 -7.28222030E-08
  5.06489065E-08  6.51904885E-01 -2.91379978E-01  8.73060479E-10  5.24497553E-12
 -3.64804787E-12 -5.71836796E-05  2.55592183E-05  4.66291588E-13 -1.10635981E-13
  2.48604406E-16  5.85373707E-16 -1.92455448E-18 -5.82944995E-16 -2.29859821E-11
 -3.30579526E-11 -4.08540192E-16 -2.53495548E-11 -3.64592747E-11 -7.52500958E-16
 -4.87084750E-11 -7.00416118E-11  1.62050855E-16 -8.82342382E-15  9.68806817E-10
  1.39282782E-09 -5.51105359E-03 -1.23298889E-02  4.68800210E-13 -5.06633098E-08
 -7.28371797E-08  2.91363373E-01  6.51867734E-01 -4.38122176E-17 -3.64945701E-12
 -5.24666031E-12  2.55582223E-05  5.71814512E-05 -1.10523480E-13 -4.65827920E-13
  2.44072361E-17  1.68574289E-16  1.39512895E-16 -3.92328464E-16  2.29986928E-11
  3.30616259E-11  4.28539622E-16  2.53667495E-11  3.64652048E-11  6.49063560E-16
  4.87208818E-11  7.00454182E-11  3.60337244E-16 -4.80681138E-15  9.68495293E-10
  1.39272802E-09 -5.51136931E-03 -1.23305953E-02  2.47909574E-13 -5.06468162E-08
 -7.28319265E-08  2.91379978E-01  6.51904886E-01 -1.58265246E-16  3.64778028E-12
  5.24603609E-12 -2.55592183E-05 -5.71836796E-05  1.10507542E-13  4.65967530E-13