[Molden Format]
[N_Atoms]
                    2
[Atoms] (AU)
N1          1      7           0.00000000      0.00000000      0.00000000
N2          2      7           0.00000000      0.00000000      1.51178090
[5D]
[7F]
[Charge] (Mulliken)
   2.7790176841957503E-004
  -2.7790176855102544E-004
[GTO] (AU)
   1
   s  10
  1.142000000E+04  5.229996559E-04
  1.712000000E+03  4.044997339E-03
  3.893000000E+02  2.077498633E-02
  1.100000000E+02  8.072694689E-02
  3.557000000E+01  2.330738467E-01
  1.254000000E+01  4.335007148E-01
  4.644000000E+00  3.474717714E-01
  1.293000000E+00  4.126197285E-02
  5.118000000E-01 -8.507994403E-03
  1.787000000E-01  2.383998432E-03
   s  10
  1.142000000E+04 -1.149999544E-04
  1.712000000E+03 -8.949996452E-04
  3.893000000E+02 -4.623998167E-03
  1.100000000E+02 -1.852799265E-02
  3.557000000E+01 -5.733897727E-02
  1.254000000E+01 -1.320759476E-01
  4.644000000E+00 -1.725099316E-01
  1.293000000E+00  1.518139398E-01
  5.118000000E-01  5.999437621E-01
  1.787000000E-01  3.874618464E-01
   s   1
  1.293000000E+00  1.000000000E+00
   s   1
  1.787000000E-01  1.000000000E+00
   p   5
  2.663000000E+01  1.467000345E-02
  5.948000000E+00  9.176402155E-02
  1.742000000E+00  2.986830701E-01
  5.550000000E-01  4.984871171E-01
  1.725000000E-01  3.370230791E-01
   p   1
  5.550000000E-01  1.000000000E+00
   p   1
  1.725000000E-01  1.000000000E+00
   d   1
  1.654000000E+00  1.000000000E+00
   d   1
  4.690000000E-01  1.000000000E+00
   f   1
  1.093000000E+00  1.000000000E+00
 
   2
   s  10
  1.142000000E+04  5.229996559E-04
  1.712000000E+03  4.044997339E-03
  3.893000000E+02  2.077498633E-02
  1.100000000E+02  8.072694689E-02
  3.557000000E+01  2.330738467E-01
  1.254000000E+01  4.335007148E-01
  4.644000000E+00  3.474717714E-01
  1.293000000E+00  4.126197285E-02
  5.118000000E-01 -8.507994403E-03
  1.787000000E-01  2.383998432E-03
   s  10
  1.142000000E+04 -1.149999544E-04
  1.712000000E+03 -8.949996452E-04
  3.893000000E+02 -4.623998167E-03
  1.100000000E+02 -1.852799265E-02
  3.557000000E+01 -5.733897727E-02
  1.254000000E+01 -1.320759476E-01
  4.644000000E+00 -1.725099316E-01
  1.293000000E+00  1.518139398E-01
  5.118000000E-01  5.999437621E-01
  1.787000000E-01  3.874618464E-01
   s   1
  1.293000000E+00  1.000000000E+00
   s   1
  1.787000000E-01  1.000000000E+00
   p   5
  2.663000000E+01  1.467000345E-02
  5.948000000E+00  9.176402155E-02
  1.742000000E+00  2.986830701E-01
  5.550000000E-01  4.984871171E-01
  1.725000000E-01  3.370230791E-01
   p   1
  5.550000000E-01  1.000000000E+00
   p   1
  1.725000000E-01  1.000000000E+00
   d   1
  1.654000000E+00  1.000000000E+00
   d   1
  4.690000000E-01  1.000000000E+00
   f   1
  1.093000000E+00  1.000000000E+00
 
[MO]
Sym=     1a  
Ene=     0.0000
Spin= Alpha
Occup=    0.00000
   1         0.70415587
   2         0.00254853
   3         0.00291545
   4        -0.00190138
   5        -0.00000000
   6        -0.00000000
   7         0.01086847
   8         0.00000000
   9        -0.00000000
  10        -0.00626148
  11         0.00000000
  12        -0.00000000
  13        -0.00411452
  14         0.00197785
  15         0.00000000
  16        -0.00000000
  17        -0.00000000
  18         0.00000000
  19        -0.00123982
  20         0.00000000
  21        -0.00000000
  22        -0.00000000
  23        -0.00000000
  24         0.00051188
  25         0.00000000
  26        -0.00000000
  27         0.00000000
  28        -0.00000000
  29        -0.00000000
  30        -0.00000000
  31         0.70414531
  32         0.00286615
  33         0.00287977
  34        -0.00182179
  35         0.00000000
  36        -0.00000000
  37        -0.01088513
  38        -0.00000000
  39         0.00000000
  40         0.00613696
  41        -0.00000000
  42         0.00000000
  43         0.00405966
  44         0.00199059
  45         0.00000000
  46        -0.00000000
  47        -0.00000000
  48        -0.00000000
  49        -0.00120363
  50         0.00000000
  51        -0.00000000
  52        -0.00000000
  53         0.00000000
  54        -0.00051792
  55        -0.00000000
  56         0.00000000
  57         0.00000000
  58        -0.00000000
  59        -0.00000000
  60         0.00000000
Sym=     2a  
Ene=     0.0000
Spin= Alpha
Occup=    0.00000
   1        -0.70703207
   2        -0.00016302
   3        -0.00423938
   4        -0.01548308
   5        -0.00000000
   6         0.00000000
   7        -0.00814800
   8         0.00000000
   9        -0.00000000
  10         0.00256842
  11         0.00000000
  12        -0.00000000
  13        -0.00190747
  14        -0.00162332
  15        -0.00000000
  16         0.00000000
  17         0.00000000
  18         0.00000000
  19        -0.00082394
  20        -0.00000000
  21        -0.00000000
  22         0.00000000
  23         0.00000000
  24        -0.00048741
  25        -0.00000000
  26        -0.00000000
  27         0.00000000
  28         0.00000000
  29        -0.00000000
  30        -0.00000000
  31         0.70715633
  32         0.00019815
  33         0.00422841
  34         0.01545966
  35         0.00000000
  36        -0.00000000
  37        -0.00815494
  38        -0.00000000
  39         0.00000000
  40         0.00257731
  41        -0.00000000
  42         0.00000000
  43        -0.00189645
  44         0.00162439
  45        -0.00000000
  46         0.00000000
  47         0.00000000
  48         0.00000000
  49         0.00081555
  50         0.00000000
  51        -0.00000000
  52        -0.00000000
  53         0.00000000
  54        -0.00048695
  55        -0.00000000
  56         0.00000000
  57         0.00000000
  58        -0.00000000
  59        -0.00000000
  60         0.00000000
Sym=     3a  
Ene=     0.0000
Spin= Alpha
Occup=    0.00000
   1        -0.07132300
   2         0.59763521
   3        -0.00883010
   4        -0.18826989
   5        -0.00000000
   6        -0.00000000
   7         0.53139672
   8        -0.00000000
   9        -0.00000000
  10        -0.12972738
  11         0.00000000
  12         0.00000000
  13        -0.18018254
  14         0.02818542
  15         0.00000000
  16        -0.00000000
  17         0.00000000
  18        -0.00000000
  19         0.00930553
  20        -0.00000000
  21        -0.00000000
  22         0.00000000
  23        -0.00000000
  24         0.00639201
  25         0.00000000
  26        -0.00000000
  27         0.00000000
  28        -0.00000000
  29        -0.00000000
  30        -0.00000000
  31        -0.07129084
  32         0.59773347
  33        -0.00884336
  34        -0.18818214
  35         0.00000000
  36        -0.00000000
  37        -0.53139238
  38         0.00000000
  39         0.00000000
  40         0.12968045
  41        -0.00000000
  42         0.00000000
  43         0.18014244
  44         0.02818869
  45        -0.00000000
  46         0.00000000
  47         0.00000000
  48         0.00000000
  49         0.00931894
  50        -0.00000000
  51         0.00000000
  52        -0.00000000
  53         0.00000000
  54        -0.00639306
  55        -0.00000000
  56         0.00000000
  57         0.00000000
  58        -0.00000000
  59         0.00000000
  60         0.00000000
Sym=     4a  
Ene=     0.0000
Spin= Alpha
Occup=    0.00000
   1         0.00000000
   2        -0.00000000
   3         0.00000000
   4        -0.00000000
   5         0.65039119
   6         0.28186904
   7         0.00000000
   8        -0.05464939
   9        -0.02368416
  10         0.00000000
  11        -0.11411450
  12        -0.04945538
  13         0.00000000
  14         0.00000000
  15         0.03185862
  16         0.01380701
  17         0.00000000
  18        -0.00000000
  19         0.00000000
  20         0.03039565
  21         0.01317298
  22        -0.00000000
  23        -0.00000000
  24        -0.00000000
  25         0.00856858
  26         0.00371349
  27         0.00000000
  28         0.00000000
  29         0.00000003
  30        -0.00000001
  31        -0.00000000
  32         0.00000000
  33        -0.00000000
  34         0.00000000
  35         0.65040000
  36         0.28187286
  37         0.00000000
  38        -0.05464589
  39        -0.02368265
  40        -0.00000000
  41        -0.11411744
  42        -0.04945666
  43        -0.00000000
  44        -0.00000000
  45        -0.03186481
  46        -0.01380969
  47         0.00000000
  48        -0.00000000
  49        -0.00000000
  50        -0.03039988
  51        -0.01317482
  52         0.00000000
  53        -0.00000000
  54         0.00000000
  55         0.00857249
  56         0.00371518
  57        -0.00000000
  58         0.00000000
  59        -0.00000001
  60         0.00000000
Sym=     5a  
Ene=     0.0000
Spin= Alpha
Occup=    0.00000
   1        -0.00000000
   2         0.00000000
   3        -0.00000000
   4         0.00000000
   5        -0.28186904
   6         0.65039119
   7        -0.00000000
   8         0.02368416
   9        -0.05464939
  10        -0.00000000
  11         0.04945538
  12        -0.11411450
  13        -0.00000000
  14         0.00000000
  15        -0.01380701
  16         0.03185862
  17         0.00000000
  18         0.00000000
  19        -0.00000000
  20        -0.01317298
  21         0.03039565
  22         0.00000000
  23        -0.00000000
  24         0.00000000
  25        -0.00371349
  26         0.00856858
  27        -0.00000000
  28         0.00000000
  29        -0.00000001
  30        -0.00000003
  31        -0.00000000
  32        -0.00000000
  33         0.00000000
  34        -0.00000000
  35        -0.28187286
  36         0.65040000
  37        -0.00000000
  38         0.02368265
  39        -0.05464589
  40         0.00000000
  41         0.04945666
  42        -0.11411744
  43         0.00000000
  44         0.00000000
  45         0.01380969
  46        -0.03186481
  47         0.00000000
  48         0.00000000
  49         0.00000000
  50         0.01317482
  51        -0.03039988
  52         0.00000000
  53         0.00000000
  54        -0.00000000
  55        -0.00371518
  56         0.00857249
  57        -0.00000000
  58        -0.00000000
  59         0.00000000
  60         0.00000001
Sym=     6a  
Ene=     0.0000
Spin= Alpha
Occup=    0.00000
   1         0.00045552
   2        -0.58032419
   3         0.01089416
   4        -0.07543882
   5        -0.00000000
   6         0.00000000
   7         0.38254612
   8         0.00000000
   9        -0.00000000
  10        -0.00574461
  11         0.00000000
  12        -0.00000000
  13        -0.01160986
  14         0.00405914
  15        -0.00000000
  16        -0.00000000
  17        -0.00000000
  18         0.00000000
  19         0.00792008
  20        -0.00000000
  21        -0.00000000
  22        -0.00000000
  23         0.00000000
  24         0.00023687
  25        -0.00000000
  26        -0.00000000
  27         0.00000000
  28         0.00000000
  29        -0.00000000
  30         0.00000000
  31        -0.00045566
  32         0.58032664
  33        -0.01089854
  34         0.07544827
  35        -0.00000000
  36         0.00000000
  37         0.38256434
  38         0.00000000
  39        -0.00000000
  40        -0.00574788
  41         0.00000000
  42        -0.00000000
  43        -0.01161783
  44        -0.00406105
  45         0.00000000
  46        -0.00000000
  47        -0.00000000
  48         0.00000000
  49        -0.00791457
  50         0.00000000
  51         0.00000000
  52        -0.00000000
  53         0.00000000
  54         0.00023635
  55        -0.00000000
  56        -0.00000000
  57         0.00000000
  58        -0.00000000
  59        -0.00000000
  60         0.00000000
Sym=     7a  
Ene=     0.0000
Spin= Alpha
Occup=    0.00000
   1         0.02343260
   2         0.23426022
   3        -0.01080619
   4         0.21518829
   5         0.00000000
   6        -0.00000000
   7        -0.77229736
   8         0.00000000
   9        -0.00000000
  10         0.12220758
  11         0.00000000
  12        -0.00000000
  13         0.13544373
  14        -0.02269827
  15        -0.00000000
  16         0.00000000
  17        -0.00000000
  18        -0.00000000
  19        -0.00089361
  20        -0.00000000
  21         0.00000000
  22         0.00000000
  23         0.00000000
  24        -0.00384419
  25        -0.00000000
  26         0.00000000
  27        -0.00000000
  28         0.00000000
  29         0.00000000
  30        -0.00000000
  31         0.02341110
  32         0.23417497
  33        -0.01080418
  34         0.21517523
  35        -0.00000000
  36         0.00000000
  37         0.77228684
  38         0.00000000
  39        -0.00000000
  40        -0.12217096
  41        -0.00000000
  42        -0.00000000
  43        -0.13543448
  44        -0.02270543
  45         0.00000000
  46        -0.00000000
  47        -0.00000000
  48        -0.00000000
  49        -0.00090004
  50         0.00000000
  51         0.00000000
  52        -0.00000000
  53         0.00000000
  54         0.00384716
  55         0.00000000
  56        -0.00000000
  57         0.00000000
  58         0.00000000
  59         0.00000000
  60        -0.00000000
Sym=     8a  
Ene=     0.0000
Spin= Alpha
Occup=    0.00000
   1        -0.00000000
   2        -0.00000000
   3         0.00000000
   4        -0.00000000
   5        -0.42679855
   6        -0.17602243
   7        -0.00000000
   8        -0.14199969
   9        -0.05856423
  10        -0.00000000
  11        -1.14376050
  12        -0.47171553
  13        -0.00000000
  14         0.00000000
  15         0.01220911
  16         0.00503534
  17        -0.00000000
  18         0.00000000
  19        -0.00000000
  20        -0.14430033
  21        -0.05951308
  22        -0.00000000
  23         0.00000000
  24        -0.00000000
  25        -0.01797952
  26        -0.00741520
  27        -0.00000000
  28         0.00000000
  29         0.00000007
  30        -0.00000003
  31        -0.00000000
  32        -0.00000000
  33         0.00000000
  34         0.00000000
  35         0.42680519
  36         0.17602517
  37        -0.00000000
  38         0.14199724
  39         0.05856323
  40        -0.00000000
  41         1.14375667
  42         0.47171395
  43         0.00000000
  44        -0.00000000
  45         0.01220919
  46         0.00503538
  47         0.00000000
  48        -0.00000000
  49        -0.00000000
  50        -0.14429863
  51        -0.05951237
  52         0.00000000
  53        -0.00000000
  54        -0.00000000
  55         0.01797854
  56         0.00741480
  57        -0.00000000
  58         0.00000000
  59        -0.00000044
  60         0.00000018
Sym=     9a  
Ene=     0.0000
Spin= Alpha
Occup=    0.00000
   1        -0.00000000
   2        -0.00000000
   3         0.00000000
   4        -0.00000000
   5        -0.17602243
   6         0.42679855
   7        -0.00000000
   8        -0.05856423
   9         0.14199969
  10        -0.00000000
  11        -0.47171553
  12         1.14376050
  13        -0.00000000
  14         0.00000000
  15         0.00503534
  16        -0.01220911
  17         0.00000000
  18         0.00000000
  19        -0.00000000
  20        -0.05951308
  21         0.14430033
  22         0.00000000
  23         0.00000000
  24        -0.00000000
  25        -0.00741520
  26         0.01797952
  27         0.00000000
  28         0.00000000
  29         0.00000003
  30         0.00000007
  31        -0.00000000
  32        -0.00000000
  33         0.00000000
  34         0.00000000
  35         0.17602517
  36        -0.42680519
  37        -0.00000000
  38         0.05856323
  39        -0.14199724
  40        -0.00000000
  41         0.47171395
  42        -1.14375667
  43        -0.00000000
  44        -0.00000000
  45         0.00503538
  46        -0.01220919
  47        -0.00000000
  48        -0.00000000
  49        -0.00000000
  50        -0.05951237
  51         0.14429863
  52        -0.00000000
  53        -0.00000000
  54         0.00000000
  55         0.00741480
  56        -0.01797854
  57         0.00000000
  58         0.00000000
  59        -0.00000018
  60        -0.00000044
Sym=    10a  
Ene=     0.0000
Spin= Alpha
Occup=    0.00000
   1        -0.05089516
   2        -0.44696168
   3        -0.04364553
   4       -14.35399626
   5        -0.00000000
   6         0.00000000
   7         0.16811435
   8         0.00000000
   9         0.00000000
  10        -0.24463312
  11         0.00000000
  12        -0.00000000
  13        -5.37530155
  14         0.02731302
  15         0.00000000
  16        -0.00000000
  17        -0.00000000
  18        -0.00000000
  19        -0.21366146
  20         0.00000000
  21        -0.00000000
  22         0.00000000
  23         0.00000000
  24        -0.01125876
  25         0.00000000
  26        -0.00000000
  27         0.00000000
  28         0.00000000
  29         0.00000000
  30         0.00000000
  31         0.05084726
  32         0.44680944
  33         0.04356916
  34        14.35402791
  35         0.00000000
  36        -0.00000000
  37         0.16824086
  38         0.00000000
  39        -0.00000000
  40        -0.24469647
  41        -0.00000000
  42         0.00000000
  43        -5.37581468
  44        -0.02732153
  45        -0.00000000
  46        -0.00000000
  47         0.00000000
  48        -0.00000000
  49         0.21382281
  50         0.00000000
  51        -0.00000000
  52        -0.00000000
  53         0.00000000
  54        -0.01128316
  55        -0.00000000
  56         0.00000000
  57         0.00000000
  58        -0.00000000
  59        -0.00000000
  60         0.00000000
Sym=    11a  
Ene=     0.0000
Spin= Alpha
Occup=    0.00000
   1        -0.00000000
   2        -0.00000000
   3        -0.00000000
   4        -0.00000000
   5        -0.32824545
   6        -0.09711562
   7         0.00000000
   8        -0.24702633
   9        -0.07308590
  10        -0.00000000
  11         0.76115916
  12         0.22519869
  13        -0.00000000
  14        -0.00000000
  15        -0.02607617
  16        -0.00771497
  17        -0.00000000
  18         0.00000000
  19        -0.00000000
  20        -0.02426255
  21        -0.00717839
  22         0.00000000
  23        -0.00000000
  24         0.00000000
  25         0.00753626
  26         0.00222970
  27        -0.00000000
  28         0.00000000
  29        -0.00000001
  30         0.00000000
  31        -0.00000000
  32        -0.00000000
  33         0.00000000
  34         0.00000000
  35        -0.32824543
  36        -0.09711562
  37         0.00000000
  38        -0.24704929
  39        -0.07309270
  40        -0.00000000
  41         0.76113565
  42         0.22519173
  43        -0.00000000
  44         0.00000000
  45         0.02608296
  46         0.00771698
  47        -0.00000000
  48         0.00000000
  49         0.00000000
  50         0.02428704
  51         0.00718563
  52         0.00000000
  53        -0.00000000
  54        -0.00000000
  55         0.00753015
  56         0.00222789
  57         0.00000000
  58        -0.00000000
  59        -0.00000010
  60         0.00000003
Sym=    12a  
Ene=     0.0000
Spin= Alpha
Occup=    0.00000
   1         0.00000000
   2         0.00000000
   3         0.00000000
   4         0.00000000
   5         0.09711562
   6        -0.32824545
   7        -0.00000000
   8         0.07308590
   9        -0.24702633
  10         0.00000000
  11        -0.22519869
  12         0.76115916
  13         0.00000000
  14         0.00000000
  15         0.00771497
  16        -0.02607617
  17        -0.00000000
  18        -0.00000000
  19        -0.00000000
  20         0.00717839
  21        -0.02426255
  22         0.00000000
  23         0.00000000
  24        -0.00000000
  25        -0.00222970
  26         0.00753626
  27        -0.00000000
  28        -0.00000000
  29         0.00000000
  30         0.00000001
  31         0.00000000
  32         0.00000000
  33        -0.00000000
  34        -0.00000000
  35         0.09711562
  36        -0.32824543
  37        -0.00000000
  38         0.07309270
  39        -0.24704929
  40         0.00000000
  41        -0.22519173
  42         0.76113565
  43         0.00000000
  44        -0.00000000
  45        -0.00771698
  46         0.02608296
  47        -0.00000000
  48        -0.00000000
  49        -0.00000000
  50        -0.00718563
  51         0.02428704
  52         0.00000000
  53         0.00000000
  54         0.00000000
  55        -0.00222789
  56         0.00753015
  57         0.00000000
  58         0.00000000
  59         0.00000003
  60         0.00000010
Sym=    13a  
Ene=     0.0000
Spin= Alpha
Occup=    0.00000
   1         0.09079045
   2         0.29659645
   3         0.15490700
   4         0.10931206
   5        -0.00000000
   6         0.00000000
   7         0.40574002
   8         0.00000000
   9         0.00000000
  10        -0.04152475
  11         0.00000000
  12        -0.00000000
  13        -1.78665836
  14         0.03039712
  15         0.00000000
  16        -0.00000000
  17        -0.00000000
  18        -0.00000000
  19        -0.29846482
  20         0.00000000
  21        -0.00000000
  22        -0.00000000
  23         0.00000000
  24        -0.04378285
  25         0.00000000
  26        -0.00000000
  27        -0.00000000
  28        -0.00000000
  29         0.00000000
  30         0.00000000
  31         0.09072730
  32         0.29647516
  33         0.15491155
  34         0.11141010
  35        -0.00000000
  36         0.00000000
  37        -0.40568506
  38        -0.00000000
  39         0.00000000
  40         0.04164505
  41        -0.00000000
  42         0.00000000
  43         1.78579540
  44         0.03038624
  45        -0.00000000
  46         0.00000000
  47         0.00000000
  48         0.00000000
  49        -0.29849755
  50         0.00000000
  51        -0.00000000
  52         0.00000000
  53        -0.00000000
  54         0.04379108
  55        -0.00000000
  56         0.00000000
  57        -0.00000000
  58        -0.00000000
  59         0.00000000
  60         0.00000000
Sym=    14a  
Ene=     0.0000
Spin= Alpha
Occup=    0.00000
   1         0.33002240
   2         1.57747265
   3        -0.07703751
   4        -1.49166657
   5        -0.00000000
   6         0.00000000
   7        -0.16420073
   8        -0.00000000
   9         0.00000000
  10        -0.16488178
  11         0.00000000
  12        -0.00000000
  13        -0.10413594
  14        -0.00122722
  15        -0.00000000
  16         0.00000000
  17         0.00000000
  18         0.00000000
  19         0.08282197
  20         0.00000000
  21         0.00000000
  22         0.00000000
  23        -0.00000000
  24        -0.01597669
  25         0.00000000
  26        -0.00000000
  27         0.00000000
  28        -0.00000000
  29         0.00000000
  30         0.00000000
  31         0.32984650
  32         1.57691918
  33        -0.07696607
  34        -1.49161014
  35         0.00000000
  36         0.00000000
  37         0.16421192
  38        -0.00000000
  39         0.00000000
  40         0.16508811
  41         0.00000000
  42        -0.00000000
  43         0.10418906
  44        -0.00125192
  45         0.00000000
  46        -0.00000000
  47        -0.00000000
  48        -0.00000000
  49         0.08277814
  50         0.00000000
  51        -0.00000000
  52        -0.00000000
  53         0.00000000
  54         0.01598299
  55         0.00000000
  56        -0.00000000
  57         0.00000000
  58        -0.00000000
  59        -0.00000000
  60        -0.00000000
Sym=    15a  
Ene=     0.0000
Spin= Alpha
Occup=    0.00000
   1         0.00000000
   2         0.00000000
   3        -0.00000000
   4        -0.00000000
   5         0.67780239
   6         0.01103926
   7         0.00000000
   8        -0.34755856
   9        -0.00566063
  10        -0.00000000
  11        -2.19515520
  12        -0.03575213
  13        -0.00000000
  14        -0.00000000
  15        -0.03518329
  16        -0.00057302
  17         0.00000000
  18        -0.00000000
  19        -0.00000000
  20        -0.76171240
  21        -0.01240589
  22        -0.00000000
  23        -0.00000000
  24        -0.00000000
  25        -0.09198370
  26        -0.00149812
  27        -0.00000000
  28         0.00000000
  29         0.00000007
  30        -0.00000000
  31         0.00000000
  32         0.00000000
  33         0.00000000
  34         0.00000000
  35        -0.67781780
  36        -0.01103951
  37        -0.00000000
  38         0.34756887
  39         0.00566080
  40        -0.00000000
  41         2.19516468
  42         0.03575229
  43        -0.00000000
  44         0.00000000
  45        -0.03518371
  46        -0.00057303
  47        -0.00000000
  48         0.00000000
  49         0.00000000
  50        -0.76170993
  51        -0.01240585
  52        -0.00000000
  53         0.00000000
  54         0.00000000
  55         0.09198159
  56         0.00149809
  57        -0.00000000
  58         0.00000000
  59        -0.00000064
  60         0.00000001
Sym=    16a  
Ene=     0.0000
Spin= Alpha
Occup=    0.00000
   1         0.00000000
   2        -0.00000000
   3         0.00000000
   4         0.00000000
   5        -0.01103926
   6         0.67780239
   7        -0.00000000
   8         0.00566063
   9        -0.34755856
  10         0.00000000
  11         0.03575213
  12        -2.19515520
  13         0.00000000
  14         0.00000000
  15         0.00057302
  16        -0.03518329
  17         0.00000000
  18         0.00000000
  19         0.00000000
  20         0.01240589
  21        -0.76171240
  22         0.00000000
  23        -0.00000000
  24         0.00000000
  25         0.00149812
  26        -0.09198370
  27        -0.00000000
  28        -0.00000000
  29        -0.00000000
  30        -0.00000007
  31        -0.00000000
  32        -0.00000000
  33        -0.00000000
  34        -0.00000000
  35         0.01103951
  36        -0.67781780
  37         0.00000000
  38        -0.00566080
  39         0.34756887
  40         0.00000000
  41        -0.03575229
  42         2.19516468
  43         0.00000000
  44        -0.00000000
  45         0.00057303
  46        -0.03518371
  47        -0.00000000
  48        -0.00000000
  49        -0.00000000
  50         0.01240585
  51        -0.76170993
  52        -0.00000000
  53        -0.00000000
  54         0.00000000
  55        -0.00149809
  56         0.09198159
  57        -0.00000000
  58        -0.00000000
  59         0.00000001
  60         0.00000064
Sym=    17a  
Ene=     0.0000
Spin= Alpha
Occup=    0.00000
   1        -0.07756629
   2         0.01321437
   3        -0.17400269
   4       -20.18582533
   5        -0.00000000
   6         0.00000000
   7        -0.27939525
   8         0.00000000
   9        -0.00000000
  10        -1.48242658
  11         0.00000000
  12        -0.00000000
  13        -5.82672789
  14        -0.05520760
  15         0.00000000
  16        -0.00000000
  17        -0.00000000
  18         0.00000000
  19        -0.29435737
  20         0.00000000
  21        -0.00000000
  22         0.00000000
  23        -0.00000000
  24        -0.03259795
  25         0.00000000
  26        -0.00000000
  27         0.00000000
  28         0.00000000
  29         0.00000000
  30         0.00000000
  31         0.07756102
  32        -0.01322386
  33         0.17405971
  34        20.18583797
  35         0.00000000
  36        -0.00000000
  37        -0.27944213
  38        -0.00000000
  39         0.00000000
  40        -1.48238103
  41        -0.00000000
  42         0.00000000
  43        -5.82662919
  44         0.05520993
  45        -0.00000000
  46         0.00000000
  47         0.00000000
  48         0.00000000
  49         0.29430802
  50         0.00000000
  51        -0.00000000
  52        -0.00000000
  53        -0.00000000
  54        -0.03258031
  55        -0.00000000
  56         0.00000000
  57         0.00000000
  58        -0.00000000
  59         0.00000000
  60        -0.00000000
Sym=    18a  
Ene=     0.0000
Spin= Alpha
Occup=    0.00000
   1        -0.00000000
   2        -0.00000000
   3        -0.00000000
   4        -0.00000000
   5         0.00000000
   6         0.00000000
   7        -0.00000000
   8        -0.00000000
   9         0.00000000
  10        -0.00000000
  11         0.00000000
  12        -0.00000000
  13        -0.00000000
  14        -0.00000000
  15         0.00000000
  16        -0.00000000
  17        -0.00000000
  18         0.00044197
  19        -0.00000000
  20        -0.00000000
  21        -0.00000000
  22        -0.00000000
  23         0.56123332
  24        -0.00000000
  25         0.00000000
  26        -0.00000000
  27        -0.00000000
  28         0.00089216
  29         0.00000000
  30         0.00000000
  31         0.00000000
  32         0.00000000
  33         0.00000000
  34         0.00000000
  35         0.00000000
  36        -0.00000000
  37        -0.00000000
  38        -0.00000000
  39         0.00000000
  40        -0.00000000
  41        -0.00000000
  42         0.00000000
  43        -0.00000000
  44         0.00000000
  45        -0.00000000
  46        -0.00000000
  47        -0.00000000
  48         0.00044260
  49         0.00000000
  50         0.00000000
  51        -0.00000000
  52        -0.00000000
  53         0.56124728
  54        -0.00000000
  55         0.00000000
  56        -0.00000000
  57         0.00000000
  58        -0.00089244
  59         0.00000000
  60         0.00000000
Sym=    19a  
Ene=     0.0000
Spin= Alpha
Occup=    0.00000
   1         0.00000000
   2         0.00000000
   3         0.00000000
   4         0.00000000
   5         0.00000000
   6        -0.00000000
   7         0.00000000
   8         0.00000000