[Molden Format]
[N_Atoms]
                    2
[Atoms] (AU)
N1          1      7           0.00000000      0.00000000      0.00000000
N2          2      7           0.00000000      0.00000000      5.29123315
[5D]
[7F]
[Charge] (Mulliken)
  -6.4361055418515889E-007
   6.4361042895200171E-007
[GTO] (AU)
   1
   s  10
  1.142000000E+04  5.229996559E-04
  1.712000000E+03  4.044997339E-03
  3.893000000E+02  2.077498633E-02
  1.100000000E+02  8.072694689E-02
  3.557000000E+01  2.330738467E-01
  1.254000000E+01  4.335007148E-01
  4.644000000E+00  3.474717714E-01
  1.293000000E+00  4.126197285E-02
  5.118000000E-01 -8.507994403E-03
  1.787000000E-01  2.383998432E-03
   s  10
  1.142000000E+04 -1.149999544E-04
  1.712000000E+03 -8.949996452E-04
  3.893000000E+02 -4.623998167E-03
  1.100000000E+02 -1.852799265E-02
  3.557000000E+01 -5.733897727E-02
  1.254000000E+01 -1.320759476E-01
  4.644000000E+00 -1.725099316E-01
  1.293000000E+00  1.518139398E-01
  5.118000000E-01  5.999437621E-01
  1.787000000E-01  3.874618464E-01
   s   1
  1.293000000E+00  1.000000000E+00
   s   1
  1.787000000E-01  1.000000000E+00
   p   5
  2.663000000E+01  1.467000345E-02
  5.948000000E+00  9.176402155E-02
  1.742000000E+00  2.986830701E-01
  5.550000000E-01  4.984871171E-01
  1.725000000E-01  3.370230791E-01
   p   1
  5.550000000E-01  1.000000000E+00
   p   1
  1.725000000E-01  1.000000000E+00
   d   1
  1.654000000E+00  1.000000000E+00
   d   1
  4.690000000E-01  1.000000000E+00
   f   1
  1.093000000E+00  1.000000000E+00
 
   2
   s  10
  1.142000000E+04  5.229996559E-04
  1.712000000E+03  4.044997339E-03
  3.893000000E+02  2.077498633E-02
  1.100000000E+02  8.072694689E-02
  3.557000000E+01  2.330738467E-01
  1.254000000E+01  4.335007148E-01
  4.644000000E+00  3.474717714E-01
  1.293000000E+00  4.126197285E-02
  5.118000000E-01 -8.507994403E-03
  1.787000000E-01  2.383998432E-03
   s  10
  1.142000000E+04 -1.149999544E-04
  1.712000000E+03 -8.949996452E-04
  3.893000000E+02 -4.623998167E-03
  1.100000000E+02 -1.852799265E-02
  3.557000000E+01 -5.733897727E-02
  1.254000000E+01 -1.320759476E-01
  4.644000000E+00 -1.725099316E-01
  1.293000000E+00  1.518139398E-01
  5.118000000E-01  5.999437621E-01
  1.787000000E-01  3.874618464E-01
   s   1
  1.293000000E+00  1.000000000E+00
   s   1
  1.787000000E-01  1.000000000E+00
   p   5
  2.663000000E+01  1.467000345E-02
  5.948000000E+00  9.176402155E-02
  1.742000000E+00  2.986830701E-01
  5.550000000E-01  4.984871171E-01
  1.725000000E-01  3.370230791E-01
   p   1
  5.550000000E-01  1.000000000E+00
   p   1
  1.725000000E-01  1.000000000E+00
   d   1
  1.654000000E+00  1.000000000E+00
   d   1
  4.690000000E-01  1.000000000E+00
   f   1
  1.093000000E+00  1.000000000E+00
 
[MO]
Sym=     1a  
Ene=     0.0000
Spin= Alpha
Occup=    0.00000
   1         0.66883133
   2         0.00035420
   3        -0.00105678
   4        -0.00023527
   5         0.00000000
   6         0.00000000
   7         0.00111124
   8        -0.00000000
   9        -0.00000000
  10        -0.00075531
  11         0.00000000
  12         0.00000000
  13        -0.00031469
  14        -0.00000714
  15        -0.00000000
  16        -0.00000000
  17        -0.00000000
  18         0.00000000
  19        -0.00002558
  20         0.00000000
  21         0.00000000
  22        -0.00000000
  23        -0.00000000
  24        -0.00000251
  25         0.00000000
  26        -0.00000000
  27        -0.00000000
  28        -0.00000000
  29         0.00000000
  30        -0.00000000
  31         0.74463810
  32         0.00034714
  33        -0.00116519
  34        -0.00020825
  35        -0.00000000
  36        -0.00000000
  37        -0.00123572
  38         0.00000000
  39         0.00000000
  40         0.00086105
  41         0.00000000
  42        -0.00000000
  43         0.00031314
  44        -0.00001391
  45         0.00000000
  46         0.00000000
  47         0.00000000
  48        -0.00000000
  49        -0.00001359
  50        -0.00000000
  51         0.00000000
  52         0.00000000
  53         0.00000000
  54         0.00000072
  55         0.00000000
  56        -0.00000000
  57        -0.00000000
  58         0.00000000
  59        -0.00000000
  60         0.00000000
Sym=     2a  
Ene=     0.0000
Spin= Alpha
Occup=    0.00000
   1         0.74446015
   2        -0.00019969
   3        -0.00099266
   4         0.00035185
   5         0.00000000
   6        -0.00000000
   7         0.00122775
   8         0.00000000
   9         0.00000000
  10        -0.00103786
  11        -0.00000000
  12        -0.00000000
  13         0.00000914
  14        -0.00006206
  15        -0.00000000
  16        -0.00000000
  17        -0.00000000
  18         0.00000000
  19         0.00011354
  20         0.00000000
  21         0.00000000
  22        -0.00000000
  23        -0.00000000
  24         0.00001714
  25         0.00000000
  26         0.00000000
  27        -0.00000000
  28         0.00000000
  29        -0.00000000
  30        -0.00000000
  31        -0.66864543
  32         0.00022410
  33         0.00088059
  34        -0.00036671
  35         0.00000000
  36         0.00000000
  37         0.00110193
  38        -0.00000000
  39        -0.00000000
  40        -0.00095130
  41         0.00000000
  42        -0.00000000
  43         0.00004306
  44         0.00006128
  45        -0.00000000
  46         0.00000000
  47        -0.00000000
  48         0.00000000
  49        -0.00011588
  50         0.00000000
  51         0.00000000
  52        -0.00000000
  53         0.00000000
  54         0.00001732
  55        -0.00000000
  56        -0.00000000
  57         0.00000000
  58        -0.00000000
  59         0.00000000
  60        -0.00000000
Sym=     3a  
Ene=     0.0000
Spin= Alpha
Occup=    0.00000
   1         0.00000740
   2         0.71991679
   3         0.00910966
   4        -0.02987696
   5        -0.00000000
   6         0.00000000
   7         0.00267673
   8         0.00000000
   9         0.00000000
  10        -0.00051289
  11         0.00000000
  12        -0.00000000
  13         0.00576402
  14        -0.00006395
  15        -0.00000000
  16         0.00000000
  17        -0.00000000
  18         0.00000000
  19         0.00160680
  20         0.00000000
  21        -0.00000000
  22        -0.00000000
  23        -0.00000000
  24         0.00017572
  25         0.00000000
  26        -0.00000000
  27         0.00000000
  28         0.00000000
  29        -0.00000000
  30        -0.00000000
  31         0.00001494
  32         0.71998547
  33         0.00910071
  34        -0.02989508
  35        -0.00000000
  36        -0.00000000
  37        -0.00267407
  38         0.00000000
  39        -0.00000000
  40         0.00051237
  41         0.00000000
  42         0.00000000
  43        -0.00576285
  44        -0.00006430
  45         0.00000000
  46        -0.00000000
  47         0.00000000
  48         0.00000000
  49         0.00160672
  50        -0.00000000
  51         0.00000000
  52         0.00000000
  53        -0.00000000
  54        -0.00017572
  55         0.00000000
  56        -0.00000000
  57        -0.00000000
  58        -0.00000000
  59         0.00000000
  60         0.00000000
Sym=     4a  
Ene=     0.0000
Spin= Alpha
Occup=    0.00000
   1        -0.00297842
   2        -0.74391742
   3        -0.00894523
   4         0.04339433
   5         0.00000000
   6         0.00000000
   7         0.03912202
   8        -0.00000000
   9        -0.00000000
  10         0.00040797
  11        -0.00000000
  12         0.00000000
  13         0.00005916
  14         0.00034694
  15         0.00000000
  16         0.00000000
  17         0.00000000
  18        -0.00000000
  19         0.00150891
  20         0.00000000
  21         0.00000000
  22         0.00000000
  23         0.00000000
  24         0.00008144
  25         0.00000000
  26        -0.00000000
  27         0.00000000
  28        -0.00000000
  29        -0.00000000
  30         0.00000000
  31         0.00298575
  32         0.74388967
  33         0.00893489
  34        -0.04340680
  35        -0.00000000
  36         0.00000000
  37         0.03912215
  38         0.00000000
  39        -0.00000000
  40         0.00040840
  41         0.00000000
  42         0.00000000
  43         0.00005928
  44        -0.00034742
  45         0.00000000
  46        -0.00000000
  47         0.00000000
  48         0.00000000
  49        -0.00150860
  50        -0.00000000
  51        -0.00000000
  52         0.00000000
  53        -0.00000000
  54         0.00008145
  55         0.00000000
  56         0.00000000
  57        -0.00000000
  58        -0.00000000
  59        -0.00000000
  60        -0.00000000
Sym=     5a  
Ene=     0.0000
Spin= Alpha
Occup=    0.00000
   1         0.00861042
   2         0.08120952
   3        -0.00031999
   4        -0.03912031
   5         0.00000000
   6         0.00000000
   7        -0.61796618
   8        -0.00000000
   9         0.00000000
  10         0.01408424
  11         0.00000000
  12        -0.00000000
  13        -0.08252040
  14        -0.00141702
  15         0.00000000
  16         0.00000000
  17         0.00000000
  18         0.00000000
  19        -0.01084810
  20        -0.00000000
  21         0.00000000
  22         0.00000000
  23        -0.00000000
  24        -0.00058286
  25        -0.00000000
  26        -0.00000000
  27        -0.00000000
  28         0.00000000
  29         0.00000000
  30        -0.00000000
  31         0.00861227
  32         0.08121342
  33        -0.00032201
  34        -0.03912547
  35         0.00000000
  36         0.00000000
  37         0.61796852
  38        -0.00000000
  39         0.00000000
  40        -0.01407934
  41         0.00000000
  42         0.00000000
  43         0.08252641
  44        -0.00141710
  45        -0.00000000
  46        -0.00000000
  47        -0.00000000
  48         0.00000000
  49        -0.01084792
  50        -0.00000000
  51         0.00000000
  52         0.00000000
  53        -0.00000000
  54         0.00058282
  55        -0.00000000
  56         0.00000000
  57        -0.00000000
  58         0.00000000
  59         0.00000000
  60         0.00000000
Sym=     6a  
Ene=     0.0000
Spin= Alpha
Occup=    0.00000
   1         0.00000000
   2        -0.00000000
   3        -0.00000000
   4        -0.00000000
   5         0.64568867
   6        -0.00892692
   7         0.00000000
   8        -0.01971534
   9         0.00027257
  10        -0.00000000
  11         0.09132224
  12        -0.00126257
  13        -0.00000000
  14        -0.00000000
  15         0.00062720
  16        -0.00000867
  17         0.00000000
  18        -0.00000000
  19         0.00000000
  20         0.00805873
  21        -0.00011142
  22        -0.00000000
  23        -0.00000000
  24        -0.00000000
  25         0.00046067
  26        -0.00000637
  27         0.00000000
  28         0.00000000
  29         0.00000001
  30         0.00000000
  31        -0.00000000
  32        -0.00000000
  33        -0.00000000
  34         0.00000000
  35         0.64568643
  36        -0.00892689
  37        -0.00000000
  38        -0.01971931
  39         0.00027263
  40         0.00000000
  41         0.09132145
  42        -0.00126256
  43        -0.00000000
  44        -0.00000000
  45        -0.00062718
  46         0.00000867
  47         0.00000000
  48         0.00000000
  49        -0.00000000
  50        -0.00805885
  51         0.00011142
  52        -0.00000000
  53        -0.00000000
  54        -0.00000000
  55         0.00046075
  56        -0.00000637
  57        -0.00000000
  58         0.00000000
  59         0.00000002
  60         0.00000000
Sym=     7a  
Ene=     0.0000
Spin= Alpha
Occup=    0.00000
   1        -0.00000000
   2        -0.00000000
   3         0.00000000
   4         0.00000000
   5         0.00892692
   6         0.64568869
   7         0.00000000
   8        -0.00027257
   9        -0.01971534
  10        -0.00000000
  11         0.00126257
  12         0.09132224
  13         0.00000000
  14         0.00000000
  15         0.00000867
  16         0.00062720
  17         0.00000000
  18        -0.00000000
  19        -0.00000000
  20         0.00011142
  21         0.00805873
  22         0.00000000
  23        -0.00000000
  24        -0.00000000
  25         0.00000637
  26         0.00046067
  27        -0.00000000
  28         0.00000000
  29         0.00000000
  30        -0.00000001
  31         0.00000000
  32        -0.00000000
  33        -0.00000000
  34        -0.00000000
  35         0.00892689
  36         0.64568641
  37        -0.00000000
  38        -0.00027263
  39        -0.01971931
  40         0.00000000
  41         0.00126256
  42         0.09132145
  43         0.00000000
  44         0.00000000
  45        -0.00000867
  46        -0.00062718
  47         0.00000000
  48        -0.00000000
  49         0.00000000
  50        -0.00011142
  51        -0.00805885
  52         0.00000000
  53        -0.00000000
  54        -0.00000000
  55         0.00000637
  56         0.00046075
  57        -0.00000000
  58         0.00000000
  59         0.00000000
  60        -0.00000002
Sym=     8a  
Ene=     0.0000
Spin= Alpha
Occup=    0.00000
   1        -0.00000000
   2         0.00000000
   3         0.00000000
   4         0.00000000
   5        -0.66315615
   6         0.00501865
   7        -0.00000000
   8         0.01844749
   9        -0.00013961
  10         0.00000000
  11        -0.08988402
  12         0.00068023
  13        -0.00000000
  14         0.00000000
  15        -0.00055865
  16         0.00000423
  17        -0.00000000
  18         0.00000000
  19         0.00000000
  20         0.00830960
  21        -0.00006289
  22         0.00000000
  23         0.00000000
  24        -0.00000000
  25         0.00054235
  26        -0.00000410
  27        -0.00000000
  28         0.00000000
  29         0.00000001
  30         0.00000000
  31        -0.00000000
  32        -0.00000000
  33        -0.00000000
  34         0.00000000
  35         0.66316634
  36        -0.00501873
  37         0.00000000
  38        -0.01845184
  39         0.00013964
  40        -0.00000000
  41         0.08988446
  42        -0.00068023
  43         0.00000000
  44        -0.00000000
  45        -0.00055861
  46         0.00000423
  47         0.00000000
  48        -0.00000000
  49        -0.00000000
  50         0.00830943
  51        -0.00006288
  52        -0.00000000
  53        -0.00000000
  54         0.00000000
  55        -0.00054234
  56         0.00000410
  57        -0.00000000
  58        -0.00000000
  59        -0.00000000
  60        -0.00000000
Sym=     9a  
Ene=     0.0000
Spin= Alpha
Occup=    0.00000
   1         0.00000000
   2         0.00000000
   3         0.00000000
   4        -0.00000000
   5         0.00501865
   6         0.66315613
   7        -0.00000000
   8        -0.00013961
   9        -0.01844749
  10         0.00000000
  11         0.00068023
  12         0.08988401
  13        -0.00000000
  14         0.00000000
  15         0.00000423
  16         0.00055865
  17         0.00000000
  18         0.00000000
  19         0.00000000
  20        -0.00006289
  21        -0.00830960
  22         0.00000000
  23         0.00000000
  24         0.00000000
  25        -0.00000410
  26        -0.00054235
  27         0.00000000
  28        -0.00000000
  29        -0.00000000
  30         0.00000001
  31         0.00000000
  32         0.00000000
  33         0.00000000
  34        -0.00000000
  35        -0.00501873
  36        -0.66316636
  37         0.00000000
  38         0.00013964
  39         0.01845184
  40        -0.00000000
  41        -0.00068023
  42        -0.08988446
  43         0.00000000
  44        -0.00000000
  45         0.00000423
  46         0.00055861
  47        -0.00000000
  48        -0.00000000
  49        -0.00000000
  50        -0.00006288
  51        -0.00830943
  52        -0.00000000
  53        -0.00000000
  54        -0.00000000
  55         0.00000410
  56         0.00054234
  57        -0.00000000
  58         0.00000000
  59         0.00000000
  60        -0.00000000
Sym=    10a  
Ene=     0.0000
Spin= Alpha
Occup=    0.00000
   1         0.00557000
   2         0.09943266
   3        -0.00047914
   4        -0.01943483
   5         0.00000000
   6        -0.00000000
   7         0.68815054
   8        -0.00000000
   9         0.00000000
  10        -0.02296871
  11         0.00000000
  12        -0.00000000
  13         0.10972626
  14        -0.00030725
  15        -0.00000000
  16        -0.00000000
  17         0.00000000
  18         0.00000000
  19        -0.00896596
  20         0.00000000
  21        -0.00000000
  22        -0.00000000
  23        -0.00000000
  24        -0.00053828
  25        -0.00000000
  26        -0.00000000
  27         0.00000000
  28         0.00000000
  29        -0.00000000
  30         0.00000000
  31        -0.00557134
  32        -0.09943689
  33         0.00048068
  34         0.01943804
  35        -0.00000000
  36        -0.00000000
  37         0.68813063
  38         0.00000000
  39         0.00000000
  40        -0.02296169
  41        -0.00000000
  42        -0.00000000
  43         0.10973008
  44         0.00030747
  45        -0.00000000
  46        -0.00000000
  47         0.00000000
  48         0.00000000
  49         0.00896599
  50        -0.00000000
  51         0.00000000
  52        -0.00000000
  53        -0.00000000
  54        -0.00053848
  55        -0.00000000
  56        -0.00000000
  57        -0.00000000
  58        -0.00000000
  59         0.00000000
  60         0.00000000
Sym=    11a  
Ene=     0.0000
Spin= Alpha
Occup=    0.00000
   1        -0.00000000
   2        -0.00000000
   3         0.00000000
   4         0.00000000
   5        -0.50300946
   6         0.00351750
   7         0.00000000
   8        -0.33273093
   9         0.00232676
  10        -0.00000000
  11         0.96564355
  12        -0.00675266
  13         0.00000000
  14         0.00000000
  15        -0.00208944
  16         0.00001461
  17        -0.00000000
  18         0.00000000
  19         0.00000000
  20         0.03306818
  21        -0.00023124
  22         0.00000000
  23        -0.00000000
  24        -0.00000000
  25         0.00148961
  26        -0.00001042
  27        -0.00000000
  28         0.00000000
  29         0.00000005
  30         0.00000000
  31        -0.00000000
  32        -0.00000000
  33         0.00000000
  34         0.00000000
  35        -0.50302266
  36         0.00351759
  37         0.00000000
  38        -0.33273329
  39         0.00232678
  40         0.00000000
  41         0.96566312
  42        -0.00675280
  43        -0.00000000
  44         0.00000000
  45         0.00208937
  46        -0.00001461
  47         0.00000000
  48         0.00000000
  49        -0.00000000
  50        -0.03306760
  51         0.00023124
  52        -0.00000000
  53        -0.00000000
  54        -0.00000000
  55         0.00148989
  56        -0.00001042
  57        -0.00000000
  58         0.00000000
  59         0.00000005
  60         0.00000000
Sym=    12a  
Ene=     0.0000
Spin= Alpha
Occup=    0.00000
   1        -0.00000000
   2        -0.00000000
   3         0.00000000
   4         0.00000000
   5         0.00351750
   6         0.50300946
   7        -0.00000000
   8         0.00232676
   9         0.33273093
  10        -0.00000000
  11        -0.00675266
  12        -0.96564355
  13         0.00000000
  14         0.00000000
  15         0.00001461
  16         0.00208944
  17         0.00000000
  18         0.00000000
  19         0.00000000
  20        -0.00023124
  21        -0.03306818
  22        -0.00000000
  23        -0.00000000
  24         0.00000000
  25        -0.00001042
  26        -0.00148961
  27         0.00000000
  28         0.00000000
  29        -0.00000000
  30         0.00000005
  31        -0.00000000
  32        -0.00000000
  33         0.00000000
  34         0.00000000
  35         0.00351759
  36         0.50302265
  37         0.00000000
  38         0.00232678
  39         0.33273329
  40         0.00000000
  41        -0.00675280
  42        -0.96566312
  43        -0.00000000
  44         0.00000000
  45        -0.00001461
  46        -0.00208937
  47         0.00000000
  48        -0.00000000
  49         0.00000000
  50         0.00023124
  51         0.03306760
  52        -0.00000000
  53        -0.00000000
  54        -0.00000000
  55        -0.00001042
  56        -0.00148989
  57         0.00000000
  58         0.00000000
  59        -0.00000000
  60         0.00000005
Sym=    13a  
Ene=     0.0000
Spin= Alpha
Occup=    0.00000
   1        -0.27008482
   2        -1.36575413
   3         0.07203646
   4         1.40410441
   5        -0.00000000
   6        -0.00000000
   7        -0.35018285
   8         0.00000000
   9        -0.00000000
  10        -0.12720043
  11         0.00000000
  12         0.00000000
  13         0.42696031
  14         0.00059363
  15        -0.00000000
  16         0.00000000
  17        -0.00000000
  18        -0.00000000
  19         0.04015254
  20         0.00000000
  21         0.00000000
  22         0.00000000
  23         0.00000000
  24         0.00127720
  25         0.00000000
  26         0.00000000
  27        -0.00000000
  28        -0.00000000
  29         0.00000000
  30        -0.00000000
  31        -0.27033621
  32        -1.36694897
  33         0.07213075
  34         1.40531512
  35        -0.00000000
  36        -0.00000000
  37         0.34980097
  38        -0.00000000
  39        -0.00000000
  40         0.12688101
  41         0.00000000
  42         0.00000000
  43        -0.42601832
  44         0.00059871
  45        -0.00000000
  46         0.00000000
  47         0.00000000
  48         0.00000000
  49         0.04015507
  50         0.00000000
  51        -0.00000000
  52        -0.00000000
  53        -0.00000000
  54        -0.00127687
  55         0.00000000
  56        -0.00000000
  57        -0.00000000
  58        -0.00000000
  59        -0.00000000
  60        -0.00000000
Sym=    14a  
Ene=     0.0000
Spin= Alpha
Occup=    0.00000
   1         0.19238181
   2         0.97294302
   3        -0.05061051
   4        -0.98937551
   5         0.00000000
   6         0.00000000
   7        -0.35718089
   8         0.00000000
   9         0.00000000
  10        -0.31600996
  11        -0.00000000
  12        -0.00000000
  13         0.91439764
  14        -0.00351129
  15        -0.00000000
  16         0.00000000
  17         0.00000000
  18         0.00000000
  19        -0.00912867
  20         0.00000000
  21        -0.00000000
  22        -0.00000000
  23        -0.00000000
  24         0.00036197
  25         0.00000000
  26         0.00000000
  27        -0.00000000
  28        -0.00000000
  29         0.00000000
  30        -0.00000000
  31        -0.19213666
  32        -0.97164195
  33         0.05056653
  34         0.98803830
  35         0.00000000
  36         0.00000000
  37        -0.35762652
  38         0.00000000
  39         0.00000000
  40        -0.31619485
  41        -0.00000000
  42        -0.00000000
  43         0.91498660
  44         0.00351115
  45         0.00000000
  46         0.00000000
  47         0.00000000
  48         0.00000000
  49         0.00908337
  50        -0.00000000
  51        -0.00000000
  52        -0.00000000
  53        -0.00000000
  54         0.00036338
  55         0.00000000
  56         0.00000000
  57         0.00000000
  58         0.00000000
  59        -0.00000000
  60         0.00000000
Sym=    15a  
Ene=     0.0000
Spin= Alpha
Occup=    0.00000
   1        -0.20506011
   2        -0.95425038
   3         0.06212671
   4         1.07514337
   5         0.00000000
   6         0.00000000
   7         0.46166953
   8         0.00000000
   9         0.00000000
  10         0.26104754
  11        -0.00000000
  12        -0.00000000
  13        -0.81742785
  14        -0.00354211
  15        -0.00000000
  16        -0.00000000
  17        -0.00000000
  18        -0.00000000
  19         0.01116522
  20         0.00000000
  21         0.00000000
  22         0.00000000
  23         0.00000000
  24         0.00070966
  25         0.00000000
  26         0.00000000
  27         0.00000000
  28         0.00000000
  29        -0.00000000
  30         0.00000000
  31        -0.20506677
  32        -0.95422594
  33         0.06214887
  34         1.07511951
  35        -0.00000000
  36        -0.00000000
  37        -0.46159386
  38        -0.00000000
  39        -0.00000000
  40        -0.26098925
  41         0.00000000
  42         0.00000000
  43         0.81722977
  44        -0.00354189
  45         0.00000000
  46        -0.00000000
  47         0.00000000
  48         0.00000000
  49         0.01115526
  50         0.00000000
  51         0.00000000
  52        -0.00000000
  53        -0.00000000
  54        -0.00070941
  55         0.00000000
  56        -0.00000000
  57         0.00000000
  58         0.00000000
  59         0.00000000
  60        -0.00000000
Sym=    16a  
Ene=     0.0000
Spin= Alpha
Occup=    0.00000
   1         0.00000000
   2         0.00000000
   3        -0.00000000
   4        -0.00000000
   5        -0.00213220
   6         0.49723176
   7        -0.00000000
   8        -0.00150563
   9         0.35111604
  10        -0.00000000
  11         0.00459397
  12        -1.07131952
  13         0.00000000
  14         0.00000000
  15         0.00000983
  16        -0.00229153
  17         0.00000000
  18        -0.00000000
  19        -0.00000000
  20        -0.00020698
  21         0.04826757
  22        -0.00000000
  23         0.00000000
  24        -0.00000000
  25        -0.00000668
  26         0.00155878
  27         0.00000000
  28        -0.00000000
  29        -0.00000000
  30        -0.00000005
  31         0.00000000
  32         0.00000000
  33        -0.00000000
  34        -0.00000000
  35         0.00213218
  36        -0.49722698
  37         0.00000000
  38         0.00150559
  39        -0.35110669
  40         0.00000000
  41        -0.00459389
  42         1.07130301
  43        -0.00000000
  44         0.00000000
  45         0.00000983
  46        -0.00229151
  47        -0.00000000
  48        -0.00000000
  49        -0.00000000
  50        -0.00020698
  51         0.04826807
  52         0.00000000
  53         0.00000000
  54         0.00000000
  55         0.00000668
  56        -0.00155875
  57        -0.00000000
  58        -0.00000000
  59         0.00000000
  60         0.00000008
Sym=    17a  
Ene=     0.0000
Spin= Alpha
Occup=    0.00000
   1        -0.00000000
   2        -0.00000000
   3         0.00000000
   4         0.00000000
   5        -0.49723177
   6        -0.00213220
   7         0.00000000
   8        -0.35111604
   9        -0.00150563
  10         0.00000000
  11         1.07131952
  12         0.00459397
  13        -0.00000000
  14         0.00000000
  15         0.00229153
  16         0.00000983
  17        -0.00000000
  18         0.00000000
  19         0.00000000
  20        -0.04826757
  21        -0.00020698
  22         0.00000000
  23        -0.00000000
  24        -0.00000000
  25        -0.00155878
  26        -0.00000668
  27         0.00000000
  28         0.00000000
  29        -0.00000005
  30         0.00000000
  31        -0.00000000
  32        -0.00000000
  33         0.00000000
  34         0.00000000
  35         0.49722698
  36         0.00213218
  37        -0.00000000
  38         0.35110669
  39         0.00150559
  40        -0.00000000
  41        -1.07130301
  42        -0.00459389
  43         0.00000000
  44         0.00000000
  45         0.00229151
  46         0.00000983
  47        -0.00000000
  48        -0.00000000
  49         0.00000000
  50        -0.04826807
  51        -0.00020698
  52         0.00000000
  53         0.00000000
  54        -0.00000000
  55         0.00155875
  56         0.00000668
  57        -0.00000000
  58        -0.00000000
  59         0.00000008
  60        -0.00000000
Sym=    18a  
Ene=     0.0000
Spin= Alpha
Occup=    0.00000
   1        -0.29445433
   2        -1.39655981
   3         0.06048791
   4         1.65240246
   5        -0.00000000
   6        -0.00000000
   7        -0.24901886
   8        -0.00000000
   9        -0.00000000
  10        -0.24592271
  11         0.00000000
  12         0.00000000
  13         0.84482612
  14         0.00563437
  15         0.00000000
  16         0.00000000
  17        -0.00000000
  18        -0.00000000
  19        -0.22729451
  20        -0.00000000
  21        -0.00000000
  22         0.00000000
  23         0.00000000
  24        -0.00229908
  25         0.00000000
  26         0.00000000
  27        -0.00000000
  28        -0.00000000
  29         0.00000000
  30        -0.00000000
  31         0.29445358
  32         1.39648662
  33        -0.06051818
  34        -1.65229964
  35         0.00000000
  36        -0.00000000
  37        -0.24902348
  38        -0.00000000
  39         0.00000000
  40        -0.24593585
  41         0.00000000
  42        -0.00000000
  43         0.84484996
  44        -0.00563563
  45        -0.00000000
  46        -0.00000000
  47        -0.00000000
  48        -0.00000000
  49         0.22730605
  50        -0.00000000
  51        -0.00000000
  52         0.00000000
  53         0.00000000
  54        -0.00229937
  55        -0.00000000
  56         0.00000000
  57         0.00000000
  58         0.00000000
  59        -0.00000000
  60         0.00000000
Sym=    19a  
Ene=     0.0000
Spin= Alpha
Occup=    0.00000
   1         0.03198719
   2         0.15718608
   3        -0.00496124
   4        -0.17614623
   5        -0.00000000
   6        -0.00000000
   7         0.01235186
   8         0.00000000