   This run of MOLCAS is using the pymolcas driver

                             OPE
                             OPE          NMOL  CASOP  ENMOLC A   SO
                 OPE        NMOLC        AS  OP EN  MO LC     AS  OP
                OPENM       OL CA        SO  PE NM  OL CA     SOP EN
                OP EN      MO   LC       AS  OP ENMOL  CASO   PENMOL
                OP  EN     MO   LC       AS  OP EN     MO     LC ASO
               OP   E  NMOL  C  AS       OP  EN MO     LC     AS  OP
               OP  E   NMO   LC AS        OPEN  MO     LCASOP EN   M
               O  PEN   MO  LCA  SO
            OPE   NMO   L   CAS    OP
        OPENMOL  CASOP     ENMOL   CASOPE
     OPENMOLCA   SOPENMOLCASOPEN   MOLCASOPE
    OPENMOLCAS   OP           EN   MOL    CAS
    OPENMOLCAS       OP  ENM        O     LCA
    OPENMOLCAS    OPEN  MOLCASO     P  E  NMO
    OPENMOLCAS     OP               E  N  MOL
    OPENMOLCA   SO           PENM   O  L  CAS    OPEN    MO    LCAS
    OPENMOLCA   SOP           ENM   O  L  CAS   OP  EN  MOLC  AS   O
    OPENMOLCA   SOPE           NM      O  LCA   S      OP  EN MO
    OPENMOLC                AS         O  PEN   M      OL  CA  SOPE
    OPENMO        LCASOPE  NMOL        C  ASO   P      ENMOLC     AS
    OPE     NMO      LCA  SO     P     E   NM   OL  CA SO  PE N   MO
          OPENMOLCA            SOPE   NMO        LCAS  O    P  ENMO
     OPENMOLCASOPENMOLCASOPENMOLCASOPENMOLCA
        OPENMOLCASOPENMOLCASOPENMOLCASOPE
            OPENMOLCASOPENMOLCASOPENM
               OPENMOLCASOPENMOLCA        version: o822a959167d23c ?
                   OPENMOLCASO
                       OPE                tag:

 OpenMolcas is free software; you can redistribute it and/or modify it
 under the terms of the GNU Lesser General Public License version 2.1.
 OpenMolcas is distributed in the hope that it will be useful, but it
 is provided "as is" and without any express or implied warranties.
 For more details see the full text of the license in the file
 LICENSE or in <http://www.gnu.org/licenses/>.

                 Copyright (C) The OpenMolcas Authors
           For the author list and the recommended citation,
                   consult the file CONTRIBUTORS.md

           *************************************************
           * pymolcas version py2.28                       *
           *   build c4a6d18ded8cb6cad61d2372a9abd97c      *
           *   (after the EMIL interpreter by V. Veryazov) *
           *************************************************

configuration info
------------------
Host name: mgt (Linux)
C Compiler ID: GNU
C flags: -std=gnu99
Fortran Compiler ID: GNU
Fortran flags: -fno-aggressive-loop-optimizations -cpp -fdefault-integer-8 -fmax-stack-var-size=1048576
Definitions: _MOLCAS_;_I8_;_LINUX_
Parallel: OFF (GA=OFF)


   -------------------------------------------------------------------------------------------------------
  |
  |           Project: n2
  |    Submitted from: /public/home/xzzeng/work/HQC/N2/cc-pvtz/NO/PES/entropy/3.6/results/work_dir/n2/dmrg
  |      Scratch area: /public/home/xzzeng/work/HQC/N2/cc-pvtz/NO/PES/entropy/3.6/results/scratch
  |   Save outputs to: /public/home/xzzeng/work/HQC/N2/cc-pvtz/NO/PES/entropy/3.6/results/work_dir/n2/dmrg
  |            Molcas: /public/home/xzzeng/soft/OpenMolcas/build
  |
  | Scratch area is NOT empty
  |
  |    MOLCAS_DRIVER = /public/home/xzzeng/soft/OpenMolcas/build/pymolcas
  |    MOLCAS_NPROCS = 1
  |    MOLCAS_SOURCE = /public/home/xzzeng/soft/OpenMolcas
  | MOLCAS_STRUCTURE = 0
  |
   -------------------------------------------------------------------------------------------------------

++ ---------   Input file   ---------

&DMRGSCF
ActiveSpaceOptimizer = QCMaquis
DMRGSettings
  nsweeps = 5
  max_bond_dimension = 300
EndDMRGSettings
OOptimizationSettings
  SPIN    = 1
  NACTEL  = 10
  FILEORB = /public/home/xzzeng/work/HQC/N2/cc-pvtz/NO/PES/entropy/3.6/results/work_dir/n2/dmrg/n2.scf.h5_sel
  TYPEINDEX
  CIONLY
EndOOptimizationSettings

-- ----------------------------------

*** symbolic link created: INPORB -> n2.ScfOrb
--- Start Module: dmrgscf at Tue Apr  9 00:43:19 2024 ---

()()()()()()()()()()()()()()()()()()()()()()()()()()()()()()()()()()()()()()()()()()()()()()()()()()

                                              &DMRGSCF

                                   only a single process is used
                       available to each process: 12 GB of memory, 1 thread?
                                             pid: 62665
()()()()()()()()()()()()()()()()()()()()()()()()()()()()()()()()()()()()()()()()()()()()()()()()()()


      DMRGSCF: active space solver is set to qcmaquis
      -------                                --------


      Header of the ONEINT file:
      --------------------------
      
      Integrals generated by Gateway/Seward, Tue Apr  9 00:43:16 2024


      OrdInt status: non-squared


      Cartesian coordinates in Angstrom:
      -----------------------------------------------------
      No.  Label        X            Y            Z        
      -----------------------------------------------------
       1   N1         0.00000000   0.00000000   0.00000000
       2   N2         0.00000000   0.00000000   3.60000000
      -----------------------------------------------------
      Nuclear repulsion energy =    7.20268982

++    Wave function specifications:
      -----------------------------

      Number of closed shell electrons           4
      Number of electrons in active shells      10
      Max number of holes in RAS1 space          0
      Max nr of electrons in RAS3 space          0
      Number of inactive orbitals                2
      Number of active orbitals                  8
      Number of secondary orbitals              50
      Spin quantum number                      0.0
      State symmetry                             1
--

++    Orbital specifications:
      -----------------------

      Symmetry species                           1
                                                 a
      Frozen orbitals                            0
      Inactive orbitals                          2
      Active orbitals                            8
      RAS1 orbitals                              0
      RAS2 orbitals                              8
      RAS3 orbitals                              0
      Secondary orbitals                        50
      Deleted orbitals                           0
      Number of basis functions                 60
--

++    DMRG specifications:
      ----------------------------

      Number of renormalized states              300
      (Max) number of sweeps                     5
      Convergence threshold (sweep tolerance)    0.100E-07
      Jacobi-Davidson threshold                  0.100E-10
      SVD truncation threshold (initial)         1e-50
      SVD truncation threshold (final)           0.100E-10
      Number of root(s) required                 1
      Root chosen for geometry opt.              1
      DMRG root used                             1
         
--

++    Optimization specifications:
      ----------------------------

      RASSCF algorithm: LK Cholesky
      Maximum number of macro iterations       200
      Maximum number of SX iterations          100
      Threshold for RASSCF energy            1.000E-08
      Threshold for max MO rotation          1.000E-01
      Threshold for max BLB element          1.000E-04
      Level shift parameter                  5.000E-01
      Make Quasi-Newton update
--

      The MO-coefficients are taken from the file:
      /public/home/xzzeng/work/HQC/N2/cc-pvtz/NO/PES/entropy/3.6/results/work_dir/n2/dmrg/n2.scf.h5_sel                                                                                                                                                               

      Total molecular charge    0.00

      ************************************************************************************************************************
      *                                                                                                                      *
      *                                            Wave function control section                                             *
      *                                                                                                                      *
      ************************************************************************************************************************


                                         DMRGCI only, no orbital optimization will be done.
                                         --------------------------------------------------

                                             Please cite for the QCMaquis-Molcas driver:

                                    Freitag L.; Keller S.; Knecht S.; Lindh R.; Ma Y.; 
                                    Stein C. J. and Reiher M., in preparation. (2018).
                                    ---------------------------------------------------------------

                                             Please cite for the QCMaquis DMRG software:

                                    S. Keller, M. Dolfi, M. Troyer, M. Reiher,
                                    J. Chem. Phys. 143, 244118 (2015)
                                    ---------------------------------------------------------------



      DMRGCI energy              :    -108.7429928121
      Total time spent (hh:mm:ss):            0:00:03


      Natural orbitals and occupation numbers for root  1
      sym 1:   1.999974   1.999892   1.059384   1.009473   1.009473   0.990541   0.990541   0.940721

      ************************************************************************************************************************
      *                                                                                                                      *
      *                                                    Final results                                                     *
      *                                                                                                                      *
      ************************************************************************************************************************


++    Wave function specifications:
      -----------------------------

      Number of closed shell electrons           4
      Number of electrons in active shells      10
      Max number of holes in RAS1 space          0
      Max nr of electrons in RAS3 space          0
      Number of inactive orbitals                2
      Number of active orbitals                  8
      Number of secondary orbitals              50
      Spin quantum number                      0.0
      State symmetry                             1
--

++    Orbital specifications:
      -----------------------

      Symmetry species                           1
                                                 a
      Frozen orbitals                            0
      Inactive orbitals                          2
      Active orbitals                            8
      RAS1 orbitals                              0
      RAS2 orbitals                              8
      RAS3 orbitals                              0
      Secondary orbitals                        50
      Deleted orbitals                           0
      Number of basis functions                 60
--

++    DMRG specifications:
      ----------------------------

      Number of renormalized states              300
      (Max) number of sweeps                     5
      Convergence threshold (sweep tolerance)    0.100E-07
      Jacobi-Davidson threshold                  0.100E-10
      SVD truncation threshold (initial)         1e-50
      SVD truncation threshold (final)           0.100E-10
      Number of root(s) required                 1
      DMRG root used                             1
      highest root included in the DMRG          1
      Root passed to geometry opt.               1
--

++    Final optimization conditions:
      ------------------------------

      Average CI energy                            -108.74299281
--


      Final state energy(ies):
      ------------------------

::    RASSCF root number  1 Total energy:   -108.74299281

++    Molecular orbitals:
      -------------------

      Pseudonatural active orbitals and approximate occupation numbers




      Molecular orbitals for symmetry species 1: a  


      Orbital                 1         2         3         4         5         6         7         8         9        10
      Energy             0.0000    0.0000    0.0000    0.0000    0.0000    0.0000    0.0000    0.0000    0.0000    0.0000
      Occ. No.           0.0000    0.0000    0.0000    0.0000    0.0000    0.0000    0.0000    0.0000    0.0000    0.0000

     1 N1     1s         0.6236   -0.7827    0.0006   -0.0026    0.0083    0.0000    0.0000   -0.0000   -0.0000    0.0052
     2 N1     2s         0.0003   -0.0002    0.7266   -0.7375    0.0501    0.0000    0.0000   -0.0000   -0.0000    0.0496
     3 N1     *s        -0.0009    0.0011    0.0085   -0.0079   -0.0026   -0.0000   -0.0000    0.0000   -0.0000   -0.0020
     4 N1     *s        -0.0002    0.0000   -0.0295    0.0392   -0.0410   -0.0000   -0.0000    0.0000    0.0000   -0.0247
     5 N1     2px        0.0000   -0.0000    0.0000    0.0000   -0.0000    0.0000    0.6499   -0.0000   -0.6537   -0.0000
     6 N1     *px       -0.0000    0.0000   -0.0000   -0.0000    0.0000   -0.0000   -0.0189    0.0000    0.0168    0.0000
     7 N1     *px       -0.0000    0.0000    0.0000    0.0000   -0.0000    0.0000    0.0943   -0.0000   -0.0909   -0.0000
     8 N1     2py       -0.0000   -0.0000   -0.0000    0.0000   -0.0000    0.6499   -0.0000   -0.6537    0.0000   -0.0000
     9 N1     *py       -0.0000    0.0000   -0.0000    0.0000    0.0000   -0.0189    0.0000    0.0168   -0.0000    0.0000
    10 N1     *py       -0.0000    0.0000   -0.0000   -0.0000   -0.0000    0.0943   -0.0000   -0.0909    0.0000   -0.0000
    11 N1     2pz        0.0005   -0.0006    0.0008    0.0182   -0.6298    0.0000   -0.0000    0.0000   -0.0000    0.6627
    12 N1     *pz       -0.0003    0.0005   -0.0008   -0.0003    0.0227   -0.0000    0.0000   -0.0000    0.0000   -0.0155
    13 N1     *pz       -0.0002    0.0001    0.0041    0.0015   -0.1094    0.0000   -0.0000    0.0000   -0.0000    0.0898
    14 N1     *d2-       0.0000   -0.0000    0.0000   -0.0000   -0.0000   -0.0000    0.0000   -0.0000    0.0000    0.0000
    15 N1     *d2-      -0.0000    0.0000   -0.0000    0.0000    0.0000    0.0000   -0.0000   -0.0000    0.0000   -0.0000
    16 N1     *d1-      -0.0000   -0.0000   -0.0000    0.0000   -0.0000    0.0002   -0.0000   -0.0005    0.0000   -0.0000
    17 N1     *d1-      -0.0000    0.0000    0.0000   -0.0000    0.0000    0.0043   -0.0000    0.0048   -0.0000   -0.0000
    18 N1     *d0       -0.0000    0.0000   -0.0001    0.0001   -0.0001    0.0000   -0.0000   -0.0000   -0.0000    0.0006
    19 N1     *d0       -0.0000   -0.0000    0.0007    0.0009   -0.0084   -0.0000   -0.0000    0.0000    0.0000   -0.0070
    20 N1     *d1+       0.0000    0.0000    0.0000    0.0000   -0.0000    0.0000    0.0002   -0.0000   -0.0005   -0.0000
    21 N1     *d1+      -0.0000   -0.0000   -0.0000   -0.0000   -0.0000    0.0000    0.0043    0.0000    0.0048    0.0000
    22 N1     *d2+      -0.0000    0.0000   -0.0000    0.0000    0.0000   -0.0000    0.0000   -0.0000   -0.0000    0.0000
    23 N1     *d2+      -0.0000    0.0000    0.0000   -0.0000   -0.0000    0.0000    0.0000   -0.0000   -0.0000    0.0000
    24 N1     *f3-       0.0000   -0.0000   -0.0000   -0.0000   -0.0000    0.0000    0.0000   -0.0000   -0.0000   -0.0000
    25 N1     *f2-       0.0000    0.0000   -0.0000    0.0000   -0.0000    0.0000   -0.0000   -0.0000    0.0000    0.0000
    26 N1     *f1-      -0.0000    0.0000    0.0000   -0.0000    0.0000    0.0002   -0.0000    0.0002   -0.0000   -0.0000
    27 N1     *f0        0.0000   -0.0000    0.0001    0.0001   -0.0005    0.0000   -0.0000   -0.0000    0.0000   -0.0003
    28 N1     *f1+      -0.0000    0.0000   -0.0000    0.0000   -0.0000    0.0000    0.0002    0.0000    0.0002    0.0000
    29 N1     *f2+       0.0000   -0.0000    0.0000   -0.0000   -0.0000    0.0000    0.0000   -0.0000   -0.0000    0.0000
    30 N1     *f3+       0.0000   -0.0000   -0.0000   -0.0000    0.0000   -0.0000    0.0000    0.0000   -0.0000    0.0000
    31 N2     1s         0.7828    0.6236    0.0006    0.0026    0.0083   -0.0000    0.0000   -0.0000   -0.0000   -0.0052
    32 N2     2s         0.0003    0.0001    0.7268    0.7374    0.0501   -0.0000    0.0000   -0.0000    0.0000   -0.0496
    33 N2     *s        -0.0011   -0.0008    0.0085    0.0079   -0.0026    0.0000   -0.0000    0.0000    0.0000    0.0020
    34 N2     *s        -0.0002   -0.0000   -0.0295   -0.0392   -0.0410    0.0000   -0.0000    0.0000   -0.0000    0.0247
    35 N2     2px        0.0000   -0.0000   -0.0000   -0.0000   -0.0000    0.0000    0.6499    0.0000    0.6537    0.0000
    36 N2     *px       -0.0000    0.0000   -0.0000   -0.0000    0.0000   -0.0000   -0.0189   -0.0000   -0.0168   -0.0000
    37 N2     *px       -0.0000    0.0000   -0.0000   -0.0000   -0.0000    0.0000    0.0943    0.0000    0.0909    0.0000
    38 N2     2py       -0.0000   -0.0000   -0.0000   -0.0000    0.0000    0.6499   -0.0000    0.6537   -0.0000   -0.0000
    39 N2     *py        0.0000    0.0000   -0.0000    0.0000   -0.0000   -0.0189    0.0000   -0.0168    0.0000    0.0000
    40 N2     *py       -0.0000   -0.0000    0.0000   -0.0000    0.0000    0.0943   -0.0000    0.0909   -0.0000   -0.0000
    41 N2     2pz       -0.0006   -0.0005   -0.0008    0.0182    0.6298    0.0000    0.0000   -0.0000   -0.0000    0.6627
    42 N2     *pz        0.0004    0.0004    0.0008   -0.0003   -0.0227   -0.0000   -0.0000    0.0000    0.0000   -0.0155
    43 N2     *pz        0.0002    0.0000   -0.0041    0.0015    0.1094    0.0000    0.0000   -0.0000   -0.0000    0.0898
    44 N2     *d2-      -0.0000    0.0000   -0.0000   -0.0000    0.0000    0.0000    0.0000   -0.0000   -0.0000    0.0000
    45 N2     *d2-       0.0000   -0.0000    0.0000    0.0000   -0.0000   -0.0000   -0.0000   -0.0000   -0.0000   -0.0000
    46 N2     *d1-       0.0000   -0.0000    0.0000   -0.0000   -0.0000   -0.0002    0.0000   -0.0005    0.0000    0.0000
    47 N2     *d1-      -0.0000   -0.0000    0.0000    0.0000    0.0000   -0.0043    0.0000    0.0048   -0.0000    0.0000
    48 N2     *d0       -0.0000   -0.0000   -0.0001   -0.0001   -0.0001   -0.0000   -0.0000    0.0000    0.0000   -0.0006
    49 N2     *d0       -0.0000    0.0000    0.0007   -0.0009   -0.0084    0.0000   -0.0000    0.0000   -0.0000    0.0070
    50 N2     *d1+       0.0000   -0.0000    0.0000   -0.0000   -0.0000   -0.0000   -0.0002   -0.0000   -0.0005   -0.0000
    51 N2     *d1+      -0.0000    0.0000   -0.0000    0.0000    0.0000   -0.0000   -0.0043    0.0000    0.0048    0.0000
    52 N2     *d2+       0.0000    0.0000   -0.0000   -0.0000    0.0000   -0.0000   -0.0000    0.0000   -0.0000   -0.0000
    53 N2     *d2+       0.0000    0.0000    0.0000    0.0000   -0.0000    0.0000   -0.0000    0.0000   -0.0000   -0.0000
    54 N2     *f3-      -0.0000   -0.0000   -0.0000   -0.0000    0.0000   -0.0000    0.0000    0.0000   -0.0000   -0.0000
    55 N2     *f2-       0.0000   -0.0000   -0.0000    0.0000   -0.0000   -0.0000   -0.0000   -0.0000   -0.0000   -0.0000
    56 N2     *f1-       0.0000    0.0000   -0.0000    0.0000   -0.0000    0.0002   -0.0000   -0.0002    0.0000   -0.0000
    57 N2     *f0       -0.0000   -0.0000   -0.0001    0.0000    0.0005    0.0000    0.0000    0.0000    0.0000   -0.0003
    58 N2     *f1+       0.0000   -0.0000   -0.0000    0.0000   -0.0000    0.0000    0.0002   -0.0000   -0.0002   -0.0000
    59 N2     *f2+      -0.0000   -0.0000   -0.0000   -0.0000    0.0000    0.0000    0.0000    0.0000    0.0000   -0.0000
    60 N2     *f3+      -0.0000   -0.0000   -0.0000   -0.0000    0.0000    0.0000    0.0000    0.0000    0.0000   -0.0000


      Orbital                11        12        13        14        15        16        17        18        19        20
      Energy             0.0000    0.0000    0.0000    0.0000    0.0000    0.0000    0.0000    0.0000    0.0000    0.0000
      Occ. No.           0.0000    0.0000    0.0000    0.0000    0.0000    0.0000    0.0000    0.0000    0.0000    0.0000

     1 N1     1s        -0.1423    0.0000    0.0000   -0.0000    0.0000    0.2517   -0.3221   -0.2447    0.0072    0.0000
     2 N1     2s        -0.6946    0.0000    0.0000   -0.0000    0.0000    1.2225   -1.5577   -1.2043    0.0466    0.0000
     3 N1     *s         0.0460   -0.0000   -0.0000    0.0000   -0.0000   -0.0714    0.0913    0.0522    0.0035   -0.0000
     4 N1     *s         0.7209   -0.0000   -0.0000    0.0000   -0.0000   -1.3104    1.6797    1.3362   -0.0561   -0.0000
     5 N1     2px       -0.0000   -0.0000   -0.4935    0.0000   -0.5024    0.0000   -0.0000    0.0000    0.0000   -0.0000
     6 N1     *px       -0.0000   -0.0000   -0.3472    0.0000   -0.3438    0.0000   -0.0000   -0.0000   -0.0000    0.0000
     7 N1     *px        0.0000    0.0000    1.0035   -0.0000    1.0317   -0.0000    0.0000   -0.0000   -0.0000    0.0000
     8 N1     2py       -0.0000   -0.4935    0.0000    0.5024    0.0000    0.0000   -0.0000    0.0000    0.0000   -0.0120
     9 N1     *py       -0.0000   -0.3472    0.0000    0.3438    0.0000    0.0000   -0.0000    0.0000   -0.0000    0.0011
    10 N1     *py        0.0000    1.0035   -0.0000   -1.0317   -0.0000   -0.0000    0.0000   -0.0000   -0.0000    0.0210
    11 N1     2pz       -0.4622   -0.0000    0.0000   -0.0000   -0.0000   -0.3425    0.2141   -0.3845    0.0517   -0.0000
    12 N1     *pz       -0.3002   -0.0000    0.0000   -0.0000   -0.0000   -0.2490    0.1393   -0.2415   -0.0013   -0.0000
    13 N1     *pz        0.8337    0.0000   -0.0000   -0.0000    0.0000    0.7321   -0.4375    0.8374   -0.0781    0.0000
    14 N1     *d2-      -0.0000    0.0000    0.0000   -0.0000    0.0000    0.0000   -0.0000   -0.0000    0.0000    0.0000
    15 N1     *d2-       0.0000   -0.0000    0.0000    0.0000    0.0000   -0.0000    0.0000    0.0000   -0.0000   -0.0000
    16 N1     *d1-       0.0000   -0.0010    0.0000   -0.0009   -0.0000   -0.0000    0.0000    0.0000    0.0000    0.0131
    17 N1     *d1-      -0.0000    0.0092   -0.0000    0.0128    0.0000    0.0000   -0.0000   -0.0000   -0.0000   -0.7136
    18 N1     *d0       -0.0031    0.0000   -0.0000   -0.0000    0.0000    0.0010   -0.0003    0.0057   -0.0137   -0.0000
    19 N1     *d0        0.0367   -0.0000    0.0000    0.0000   -0.0000   -0.0180    0.0030   -0.0892    0.7126    0.0000
    20 N1     *d1+       0.0000   -0.0000   -0.0010   -0.0000    0.0009    0.0000    0.0000   -0.0000   -0.0000    0.0000
    21 N1     *d1+      -0.0000    0.0000    0.0092    0.0000   -0.0128    0.0000   -0.0000   -0.0000    0.0000   -0.0000
    22 N1     *d2+      -0.0000   -0.0000   -0.0000    0.0000   -0.0000    0.0000   -0.0000   -0.0000   -0.0000    0.0000
    23 N1     *d2+       0.0000   -0.0000   -0.0000    0.0000   -0.0000    0.0000   -0.0000   -0.0000    0.0000   -0.0000
    24 N1     *f3-      -0.0000   -0.0000   -0.0000    0.0000   -0.0000   -0.0000   -0.0000   -0.0000    0.0000   -0.0000
    25 N1     *f2-      -0.0000   -0.0000    0.0000   -0.0000    0.0000   -0.0000    0.0000   -0.0000    0.0000   -0.0000
    26 N1     *f1-       0.0000    0.0004   -0.0000    0.0004    0.0000    0.0000   -0.0000    0.0000   -0.0000   -0.0002
    27 N1     *f0        0.0012   -0.0000   -0.0000    0.0000   -0.0000   -0.0005    0.0000   -0.0018    0.0001   -0.0000
    28 N1     *f1+       0.0000    0.0000    0.0004    0.0000   -0.0004    0.0000    0.0000   -0.0000   -0.0000   -0.0000
    29 N1     *f2+       0.0000   -0.0000   -0.0000    0.0000    0.0000    0.0000   -0.0000   -0.0000    0.0000   -0.0000
    30 N1     *f3+       0.0000    0.0000    0.0000   -0.0000    0.0000   -0.0000    0.0000    0.0000   -0.0000    0.0000
    31 N2     1s        -0.1423   -0.0000    0.0000   -0.0000   -0.0000   -0.2520   -0.3219    0.2447    0.0072   -0.0000
    32 N2     2s        -0.6948   -0.0000    0.0000   -0.0000   -0.0000   -1.2241   -1.5567    1.2042    0.0466   -0.0000
    33 N2     *s         0.0461    0.0000   -0.0000    0.0000    0.0000    0.0715    0.0912   -0.0522    0.0035    0.0000
    34 N2     *s         0.7211    0.0000   -0.0000    0.0000    0.0000    1.3121    1.6786   -1.3361   -0.0561    0.0000
    35 N2     2px       -0.0000   -0.0000   -0.4936   -0.0000    0.5024   -0.0000   -0.0000   -0.0000    0.0000   -0.0000
    36 N2     *px       -0.0000   -0.0000   -0.3472   -0.0000    0.3438   -0.0000   -0.0000   -0.0000    0.0000    0.0000
    37 N2     *px        0.0000    0.0000    1.0036    0.0000   -1.0316    0.0000    0.0000    0.0000   -0.0000    0.0000
    38 N2     2py        0.0000   -0.4936    0.0000   -0.5024   -0.0000    0.0000    0.0000    0.0000   -0.0000   -0.0120
    39 N2     *py        0.0000   -0.3472    0.0000   -0.3438   -0.0000    0.0000    0.0000    0.0000    0.0000    0.0011
    40 N2     *py       -0.0000    1.0036   -0.0000    1.0316    0.0000   -0.0000   -0.0000   -0.0000    0.0000    0.0210
    41 N2     2pz        0.4621   -0.0000   -0.0000    0.0000   -0.0000   -0.3427   -0.2137   -0.3846   -0.0517   -0.0000
    42 N2     *pz        0.3002   -0.0000   -0.0000    0.0000   -0.0000   -0.2492   -0.1390   -0.2416    0.0013   -0.0000
    43 N2     *pz       -0.8336    0.0000    0.0000   -0.0000    0.0000    0.7326    0.4366    0.8374    0.0781    0.0000
    44 N2     *d2-       0.0000    0.0000    0.0000    0.0000   -0.0000    0.0000    0.0000   -0.0000   -0.0000    0.0000
    45 N2     *d2-      -0.0000   -0.0000   -0.0000   -0.0000    0.0000   -0.0000   -0.0000    0.0000    0.0000   -0.0000
    46 N2     *d1-       0.0000    0.0010   -0.0000   -0.0009   -0.0000    0.0000    0.0000   -0.0000    0.0000   -0.0131
    47 N2     *d1-      -0.0000   -0.0092    0.0000    0.0128    0.0000   -0.0000   -0.0000    0.0000   -0.0000    0.7137
    48 N2     *d0       -0.0031   -0.0000   -0.0000   -0.0000    0.0000   -0.0010   -0.0003   -0.0057   -0.0137    0.0000
    49 N2     *d0        0.0367    0.0000    0.0000    0.0000    0.0000    0.0180    0.0029    0.0892    0.7126   -0.0000
    50 N2     *d1+       0.0000    0.0000    0.0010   -0.0000    0.0009   -0.0000    0.0000   -0.0000    0.0000   -0.0000
    51 N2     *d1+      -0.0000   -0.0000   -0.0092    0.0000   -0.0128    0.0000    0.0000    0.0000   -0.0000    0.0000
    52 N2     *d2+      -0.0000   -0.0000    0.0000   -0.0000   -0.0000    0.0000    0.0000   -0.0000   -0.0000   -0.0000
    53 N2     *d2+       0.0000    0.0000    0.0000    0.0000   -0.0000   -0.0000   -0.0000    0.0000    0.0000    0.0000
    54 N2     *f3-       0.0000   -0.0000    0.0000    0.0000   -0.0000    0.0000   -0.0000    0.0000   -0.0000    0.0000
    55 N2     *f2-      -0.0000    0.0000    0.0000   -0.0000   -0.0000    0.0000    0.0000    0.0000    0.0000    0.0000
    56 N2     *f1-      -0.0000    0.0004   -0.0000   -0.0004   -0.0000    0.0000    0.0000    0.0000   -0.0000   -0.0002
    57 N2     *f0       -0.0012   -0.0000    0.0000   -0.0000    0.0000   -0.0005   -0.0000   -0.0018   -0.0001   -0.0000
    58 N2     *f1+      -0.0000    0.0000    0.0004   -0.0000    0.0004   -0.0000    0.0000    0.0000    0.0000   -0.0000
    59 N2     *f2+      -0.0000   -0.0000   -0.0000   -0.0000    0.0000    0.0000    0.0000   -0.0000   -0.0000    0.0000
    60 N2     *f3+       0.0000   -0.0000    0.0000   -0.0000    0.0000    0.0000   -0.0000   -0.0000   -0.0000   -0.0000


      Orbital                21        22        23        24        25        26        27        28        29        30
      Energy             0.0000    0.0000    0.0000    0.0000    0.0000    0.0000    0.0000    0.0000    0.0000    0.0000
      Occ. No.           0.0000    0.0000    0.0000    0.0000    0.0000    0.0000    0.0000    0.0000    0.0000    0.0000

     1 N1     1s        -0.0000    0.0000    0.0000   -0.0000   -0.0000   -0.0000    0.0000    0.0206   -0.0133    0.0000
     2 N1     2s        -0.0000   -0.0000    0.0000    0.0000   -0.0000   -0.0000    0.0000    0.1222   -0.0034   -0.0000
     3 N1     *s         0.0000   -0.0000   -0.0000    0.0000    0.0000    0.0000    0.0000    0.0065    0.0321   -0.0000
     4 N1     *s         0.0000    0.0000   -0.0000   -0.0000    0.0000    0.0000   -0.0000   -0.1500   -0.0285    0.0000
     5 N1     2px        0.0120   -0.0000    0.0000   -0.0000   -0.0000   -0.0000   -0.0134   -0.0000    0.0000    0.0000
     6 N1     *px       -0.0011    0.0000    0.0000    0.0000    0.0000   -0.0000   -0.0018    0.0000   -0.0000   -0.0000
     7 N1     *px       -0.0210    0.0000   -0.0000    0.0000    0.0000    0.0000    0.0268    0.0000   -0.0000   -0.0000
     8 N1     2py       -0.0000   -0.0000   -0.0000    0.0000    0.0000   -0.0134    0.0000   -0.0000   -0.0000   -2.4167
     9 N1     *py        0.0000   -0.0000    0.0000   -0.0000   -0.0000   -0.0018    0.0000   -0.0000    0.0000    2.2333
    10 N1     *py        0.0000    0.0000    0.0000   -0.0000    0.0000    0.0268   -0.0000    0.0000    0.0000    0.3973
    11 N1     2pz       -0.0000   -0.0000    0.0000    0.0000   -0.0000    0.0000   -0.0000    0.1048    2.4096    0.0000
    12 N1     *pz       -0.0000    0.0000    0.0000    0.0000    0.0000   -0.0000    0.0000    0.0099   -2.2070   -0.0000
    13 N1     *pz        0.0000    0.0000   -0.0000   -0.0000    0.0000   -0.0000   -0.0000   -0.1753   -0.4354   -0.0000
    14 N1     *d2-       0.0000    0.0000   -0.0129   -0.0000    0.0129   -0.0000   -0.0000    0.0000    0.0000    0.0000
    15 N1     *d2-      -0.0000   -0.0000    0.7140    0.0000   -0.7136    0.0000    0.0000   -0.0000   -0.0000   -0.0000
    16 N1     *d1-       0.0000   -0.0000    0.0000   -0.0000    0.0000   -0.0127    0.0000    0.0000   -0.0000    0.0021
    17 N1     *d1-      -0.0000    0.0000   -0.0000    0.0000   -0.0000    0.7137   -0.0000   -0.0000   -0.0000    0.0037
    18 N1     *d0        0.0000    0.0000    0.0000    0.0000    0.0000   -0.0000   -0.0000    0.0103   -0.0103    0.0000
    19 N1     *d0       -0.0000   -0.0000   -0.0000   -0.0000   -0.0000    0.0000    0.0000   -0.7081   -0.0142    0.0000
    20 N1     *d1+      -0.0131    0.0000    0.0000    0.0000    0.0000   -0.0000   -0.0127   -0.0000   -0.0000   -0.0000
    21 N1     *d1+       0.7136   -0.0000   -0.0000   -0.0000   -0.0000    0.0000    0.7137   -0.0000   -0.0000   -0.0000
    22 N1     *d2+      -0.0000   -0.0129   -0.0000    0.0129    0.0000    0.0000   -0.0000   -0.0000   -0.0000   -0.0000
    23 N1     *d2+       0.0000    0.7139    0.0000   -0.7136   -0.0000   -0.0000    0.0000   -0.0000   -0.0000   -0.0000
    24 N1     *f3-      -0.0000   -0.0000   -0.0000    0.0000   -0.0000   -0.0000    0.0000    0.0000    0.0000    0.0000
    25 N1     *f2-      -0.0000   -0.0000    0.0001   -0.0000    0.0000    0.0000    0.0000    0.0000   -0.0000    0.0000
    26 N1     *f1-      -0.0000   -0.0000   -0.0000    0.0000    0.0000   -0.0002    0.0000   -0.0000    0.0000   -0.0017
    27 N1     *f0       -0.0000   -0.0000    0.0000   -0.0000   -0.0000    0.0000   -0.0000    0.0008    0.0056    0.0000
    28 N1     *f1+       0.0002   -0.0000    0.0000    0.0000   -0.0000   -0.0000   -0.0002    0.0000    0.0000    0.0000
    29 N1     *f2+       0.0000    0.0001    0.0000    0.0000    0.0000   -0.0000    0.0000   -0.0000    0.0000    0.0000
    30 N1     *f3+      -0.0000   -0.0000    0.0000    0.0000   -0.0000    0.0000    0.0000    0.0000   -0.0000    0.0000
    31 N2     1s        -0.0000   -0.0000   -0.0000   -0.0000   -0.0000   -0.0000    0.0000   -0.0206   -0.0133   -0.0000
    32 N2     2s        -0.0000   -0.0000   -0.0000   -0.0000   -0.0000   -0.0000    0.0000   -0.1222   -0.0034   -0.0000
    33 N2     *s         0.0000   -0.0000    0.0000   -0.0000    0.0000    0.0000    0.0000   -0.0065    0.0321    0.0000
    34 N2     *s         0.0000    0.0000    0.0000    0.0000    0.0000    0.0000   -0.0000    0.1499   -0.0285   -0.0000
    35 N2     2px        0.0120   -0.0000   -0.0000   -0.0000   -0.0000    0.0000    0.0134   -0.0000    0.0000    0.0000
    36 N2     *px       -0.0011   -0.0000   -0.0000   -0.0000    0.0000    0.0000    0.0018    0.0000   -0.0000   -0.0000
    37 N2     *px       -0.0210    0.0000    0.0000    0.0000    0.0000   -0.0000   -0.0268    0.0000   -0.0000   -0.0000
    38 N2     2py       -0.0000    0.0000   -0.0000    0.0000   -0.0000    0.0134   -0.0000   -0.0000    0.0000   -2.4198
    39 N2     *py        0.0000    0.0000   -0.0000   -0.0000   -0.0000    0.0018   -0.0000   -0.0000   -0.0000    2.2363
    40 N2     *py        0.0000   -0.0000    0.0000   -0.0000    0.0000   -0.0268    0.0000    0.0000   -0.0000    0.3978
    41 N2     2pz        0.0000    0.0000    0.0000    0.0000    0.0000   -0.0000   -0.0000    0.1048   -2.4094    0.0000
    42 N2     *pz       -0.0000    0.0000    0.0000    0.0000   -0.0000   -0.0000    0.0000    0.0099    2.2068   -0.0000
    43 N2     *pz       -0.0000   -0.0000   -0.0000   -0.0000   -0.0000    0.0000    0.0000   -0.1753    0.4354   -0.0000
    44 N2     *d2-      -0.0000    0.0000   -0.0129    0.0000   -0.0129   -0.0000   -0.0000    0.0000   -0.0000    0.0000
    45 N2     *d2-       0.0000   -0.0000    0.7135   -0.0000    0.7140    0.0000    0.0000   -0.0000    0.0000    0.0000
    46 N2     *d1-      -0.0000   -0.0000   -0.0000    0.0000   -0.0000   -0.0127    0.0000   -0.0000   -0.0000   -0.0021
    47 N2     *d1-       0.0000    0.0000    0.0000   -0.0000    0.0000    0.7136   -0.0000    0.0000   -0.0000   -0.0037
    48 N2     *d0        0.0000    0.0000   -0.0000    0.0000    0.0000   -0.0000   -0.0000   -0.0103   -0.0103   -0.0000
    49 N2     *d0       -0.0000   -0.0000    0.0000   -0.0000   -0.0000    0.0000    0.0000    0.7081   -0.0142   -0.0000
    50 N2     *d1+       0.0131   -0.0000    0.0000   -0.0000   -0.0000   -0.0000   -0.0127   -0.0000    0.0000    0.0000
    51 N2     *d1+      -0.7137    0.0000   -0.0000    0.0000    0.0000    0.0000    0.7136    0.0000   -0.0000    0.0000
    52 N2     *d2+      -0.0000   -0.0129   -0.0000   -0.0129   -0.0000    0.0000   -0.0000    0.0000   -0.0000   -0.0000
    53 N2     *d2+       0.0000    0.7136    0.0000    0.7139    0.0000   -0.0000    0.0000   -0.0000   -0.0000   -0.0000
    54 N2     *f3-       0.0000   -0.0000    0.0000   -0.0000    0.0000    0.0000   -0.0000    0.0000   -0.0000    0.0000
    55 N2     *f2-       0.0000    0.0000   -0.0001   -0.0000    0.0000   -0.0000   -0.0000   -0.0000   -0.0000    0.0000
    56 N2     *f1-      -0.0000    0.0000    0.0000    0.0000    0.0000    0.0002   -0.0000   -0.0000   -0.0000   -0.0017
    57 N2     *f0       -0.0000    0.0000    0.0000    0.0000    0.0000   -0.0000   -0.0000    0.0008   -0.0056    0.0000
    58 N2     *f1+       0.0002   -0.0000   -0.0000    0.0000   -0.0000    0.0000    0.0002   -0.0000   -0.0000    0.0000
    59 N2     *f2+       0.0000   -0.0001   -0.0000    0.0000    0.0000    0.0000   -0.0000   -0.0000   -0.0000    0.0000
    60 N2     *f3+       0.0000    0.0000    0.0000    0.0000    0.0000   -0.0000   -0.0000   -0.0000    0.0000    0.0000


      Orbital                31        32        33        34        35        36        37        38        39        40
      Energy             0.0000    0.0000    0.0000    0.0000    0.0000    0.0000    0.0000    0.0000    0.0000    0.0000
      Occ. No.           0.0000    0.0000    0.0000    0.0000    0.0000    0.0000    0.0000    0.0000    0.0000    0.0000

     1 N1     1s        -0.0000   -0.0000    0.0000   -0.0288   -0.0000   -0.0000    0.0000   -0.0000    0.0047   -0.0000
     2 N1     2s        -0.0000    0.0000    0.0000   -0.0203   -0.0000   -0.0000    0.0000   -0.0000    0.0089   -0.0000
     3 N1     *s         0.0000    0.0000   -0.0000    0.0636    0.0000    0.0000   -0.0000    0.0000   -0.0073    0.0000
     4 N1     *s         0.0000   -0.0000   -0.0000   -0.0383    0.0000    0.0000   -0.0000    0.0000   -0.0043    0.0000
     5 N1     2px       -2.4167   -0.0000   -2.4236   -0.0000   -0.0000   -0.0069    0.0000    0.0000    0.0000   -0.0000
     6 N1     *px        2.2333    0.0000    2.2552    0.0000    0.0000    0.0072   -0.0000   -0.0000   -0.0000    0.0000
     7 N1     *px        0.3973    0.0000    0.3723    0.0000   -0.0000   -0.0005    0.0000    0.0000    0.0000   -0.0000
     8 N1     2py       -0.0000    2.4236   -0.0000   -0.0000   -0.0069    0.0000   -0.0000   -0.0000    0.0000   -0.0000
     9 N1     *py        0.0000   -2.2552    0.0000    0.0000    0.0072   -0.0000    0.0000    0.0000   -0.0000    0.0000
    10 N1     *py        0.0000   -0.3723    0.0000    0.0000   -0.0005    0.0000    0.0000   -0.0000    0.0000   -0.0000
    11 N1     2pz        0.0000    0.0000   -0.0000   -2.4303   -0.0000   -0.0000    0.0000    0.0000    0.0223   -0.0000
    12 N1     *pz       -0.0000   -0.0000    0.0000    2.3045    0.0000    0.0000   -0.0000   -0.0000   -0.0237    0.0000
    13 N1     *pz       -0.0000   -0.0000    0.0000    0.2917   -0.0000   -0.0000    0.0000    0.0000    0.0014   -0.0000
    14 N1     *d2-       0.0000    0.0000    0.0000    0.0000    0.0000   -0.0000   -0.0027    0.0000    0.0000    0.0028
    15 N1     *d2-       0.0000   -0.0000   -0.0000   -0.0000   -0.0000    0.0000    0.0015   -0.0000   -0.0000   -0.0014
    16 N1     *d1-       0.0000    0.0041   -0.0000   -0.0000    0.0034   -0.0000    0.0000   -0.0000    0.0000    0.0000
    17 N1     *d1-       0.0000    0.0024   -0.0000    0.0000   -0.0019    0.0000   -0.0000    0.0000   -0.0000   -0.0000
    18 N1     *d0        0.0000   -0.0000    0.0000   -0.0205   -0.0000   -0.0000    0.0000    0.0000   -0.0040    0.0000
    19 N1     *d0       -0.0000   -0.0000    0.0000   -0.0175    0.0000    0.0000   -0.0000   -0.0000    0.0020   -0.0000
    20 N1     *d1+       0.0021   -0.0000   -0.0041   -0.0000    0.0000    0.0034    0.0000    0.0000    0.0000    0.0000
    21 N1     *d1+       0.0037   -0.0000   -0.0024    0.0000   -0.0000   -0.0019   -0.0000   -0.0000   -0.0000   -0.0000
    22 N1     *d2+      -0.0000    0.0000   -0.0000    0.0000    0.0000   -0.0000    0.0000   -0.0027    0.0000   -0.0000
    23 N1     *d2+       0.0000   -0.0000    0.0000   -0.0000   -0.0000    0.0000    0.0000    0.0015   -0.0000    0.0000
    24 N1     *f3-       0.0000   -0.0000    0.0000   -0.0000   -0.0003   -0.0000    0.0000    0.0000   -0.0000   -0.0000
    25 N1     *f2-      -0.0000   -0.0000   -0.0000    0.0000    0.0000   -0.0000   -0.6982    0.0000    0.0000    0.7159
    26 N1     *f1-      -0.0000   -0.0016    0.0000   -0.0000    0.7060   -0.0000    0.0000   -0.0000    0.0000    0.0000
    27 N1     *f0        0.0000   -0.0000    0.0000    0.0089   -0.0000   -0.0000    0.0000    0.0000   -0.7157    0.0000
    28 N1     *f1+      -0.0017    0.0000    0.0016   -0.0000    0.0000    0.7060    0.0000    0.0000    0.0000    0.0000
    29 N1     *f2+      -0.0000   -0.0000   -0.0000    0.0000    0.0000   -0.0000    0.0000   -0.7045    0.0001   -0.0000
    30 N1     *f3+      -0.0000    0.0000   -0.0000   -0.0000    0.0000    0.0009   -0.0000    0.0000   -0.0000    0.0000
    31 N2     1s        -0.0000   -0.0000   -0.0000    0.0288    0.0000    0.0000   -0.0000   -0.0000    0.0049   -0.0000
    32 N2     2s         0.0000   -0.0000   -0.0000    0.0203    0.0000    0.0000   -0.0000   -0.0000    0.0092   -0.0000
    33 N2     *s         0.0000    0.0000    0.0000   -0.0636   -0.0000   -0.0000    0.0000    0.0000   -0.0076    0.0000
    34 N2     *s        -0.0000   -0.0000    0.0000    0.0383   -0.0000   -0.0000    0.0000    0.0000   -0.0045    0.0000
    35 N2     2px       -2.4198    0.0000    2.4204   -0.0000   -0.0000   -0.0069   -0.0000   -0.0000   -0.0000   -0.0000
    36 N2     *px        2.2363   -0.0000   -2.2522    0.0000    0.0000    0.0072    0.0000    0.0000    0.0000    0.0000
    37 N2     *px        0.3978   -0.0000   -0.3718    0.0000   -0.0000   -0.0005   -0.0000   -0.0000   -0.0000   -0.0000
    38 N2     2py       -0.0000   -2.4204    0.0000   -0.0000   -0.0069    0.0000   -0.0000    0.0000   -0.0000   -0.0000
    39 N2     *py        0.0000    2.2522   -0.0000    0.0000    0.0072   -0.0000    0.0000   -0.0000    0.0000    0.0000
    40 N2     *py        0.0000    0.3718   -0.0000    0.0000   -0.0005    0.0000   -0.0000    0.0000   -0.0000   -0.0000
    41 N2     2pz       -0.0000   -0.0000    0.0000   -2.4305   -0.0000   -0.0000    0.0000    0.0000   -0.0232    0.0000
    42 N2     *pz        0.0000    0.0000   -0.0000    2.3047    0.0000    0.0000   -0.0000   -0.0000    0.0246   -0.0000
    43 N2     *pz        0.0000    0.0000   -0.0000    0.2918   -0.0000   -0.0000    0.0000    0.0000   -0.0015    0.0000
    44 N2     *d2-       0.0000    0.0000    0.0000    0.0000    0.0000    0.0000   -0.0028   -0.0000   -0.0000   -0.0027
    45 N2     *d2-       0.0000   -0.0000   -0.0000   -0.0000   -0.0000   -0.0000    0.0015    0.0000    0.0000    0.0013
    46 N2     *d1-      -0.0000    0.0041   -0.0000    0.0000   -0.0034    0.0000   -0.0000   -0.0000    0.0000   -0.0000
    47 N2     *d1-      -0.0000    0.0024   -0.0000   -0.0000    0.0019   -0.0000    0.0000    0.0000   -0.0000    0.0000
    48 N2     *d0       -0.0000   -0.0000    0.0000    0.0205    0.0000    0.0000   -0.0000   -0.0000   -0.0039    0.0000
    49 N2     *d0       -0.0000   -0.0000    0.0000    0.0175   -0.0000   -0.0000    0.0000   -0.0000    0.0019   -0.0000
    50 N2     *d1+      -0.0021   -0.0000   -0.0041    0.0000   -0.0000   -0.0034    0.0000    0.0000    0.0000   -0.0000
    51 N2     *d1+      -0.0037   -0.0000   -0.0024   -0.0000    0.0000    0.0019   -0.0000   -0.0000   -0.0000    0.0000
    52 N2     *d2+       0.0000    0.0000   -0.0000    0.0000   -0.0000    0.0000   -0.0000   -0.0028   -0.0000    0.0000
    53 N2     *d2+      -0.0000   -0.0000   -0.0000    0.0000    0.0000   -0.0000    0.0000    0.0015    0.0000   -0.0000
    54 N2     *f3-      -0.0000    0.0000    0.0000   -0.0000    0.0005   -0.0000   -0.0000   -0.0000   -0.0000   -0.0000
    55 N2     *f2-      -0.0000    0.0000    0.0000   -0.0000   -0.0000   -0.0000    0.7159    0.0000    0.0000    0.6982
    56 N2     *f1-      -0.0000    0.0016   -0.0000   -0.0000    0.7082   -0.0000    0.0000    0.0000   -0.0000    0.0000
    57 N2     *f0       -0.0000    0.0000    0.0000    0.0088   -0.0000   -0.0000    0.0000   -0.0000    0.6984   -0.0000
    58 N2     *f1+      -0.0017   -0.0000   -0.0016   -0.0000    0.0000    0.7082   -0.0000   -0.0000   -0.0000    0.0000
    59 N2     *f2+       0.0000    0.0000   -0.0000    0.0000    0.0000   -0.0000    0.0000    0.7097    0.0001   -0.0000
    60 N2     *f3+      -0.0000    0.0000    0.0000    0.0000   -0.0000    0.0001    0.0000   -0.0000    0.0000    0.0000


      Orbital                41        42        43        44        45        46        47        48        49        50
      Energy             0.0000    0.0000    0.0000    0.0000    0.0000    0.0000    0.0000    0.0000    0.0000    0.0000
      Occ. No.           0.0000    0.0000    0.0000    0.0000    0.0000    0.0000    0.0000    0.0000    0.0000    0.0000

     1 N1     1s        -0.0000    0.0000   -0.0000   -0.0000    0.0000    0.0000    0.0000    0.0088    0.0350   -0.0000
     2 N1     2s        -0.0000    0.0000   -0.0000   -0.0000    0.0000    0.0000    0.0000    0.0158    0.0708   -0.0000
     3 N1     *s         0.0000   -0.0000    0.0000    0.0000   -0.0000   -0.0000   -0.0000   -0.0141   -0.0523    0.0000
     4 N1     *s         0.0000   -0.0000    0.0000    0.0000   -0.0000   -0.0000   -0.0000   -0.0062   -0.0389    0.0000
     5 N1     2px       -0.0000   -0.0000   -0.0000   -0.0000    0.0000   -0.0000   -0.0063   -0.0000    0.0000    0.0000
     6 N1     *px        0.0000    0.0000    0.0000    0.0000   -0.0000    0.0000    0.0069    0.0000   -0.0000   -0.0000
     7 N1     *px       -0.0000   -0.0000   -0.0000   -0.0000    0.0000   -0.0000   -0.0008   -0.0000    0.0000    0.0000
     8 N1     2py        0.0000    0.0000   -0.0000   -0.0000   -0.0000   -0.0063    0.0000   -0.0000    0.0000   -0.0087
     9 N1     *py       -0.0000   -0.0000    0.0000    0.0000    0.0000    0.0069   -0.0000    0.0000   -0.0000    0.0111
    10 N1     *py        0.0000    0.0000   -0.0000   -0.0000   -0.0000   -0.0008    0.0000   -0.0000    0.0000   -0.0028
    11 N1     2pz       -0.0000    0.0000   -0.0000   -0.0000    0.0000    0.0000    0.0000    0.0343    0.0458   -0.0000
    12 N1     *pz        0.0000   -0.0000    0.0000    0.0000   -0.0000   -0.0000   -0.0000   -0.0376   -0.0536    0.0000
    13 N1     *pz       -0.0000    0.0000    0.0000    0.0000    0.0000    0.0000    0.0000    0.0045    0.0097   -0.0000
    14 N1     *d2-       0.0000   -0.0000    0.0000    0.0000   -0.0000   -0.0000   -0.0000    0.0000   -0.0000    0.0000
    15 N1     *d2-      -0.0000    0.0000   -0.0000   -0.0000    0.0000    0.0000    0.0000   -0.0000    0.0000   -0.0000
    16 N1     *d1-      -0.0000    0.0000   -0.0000    0.0000   -0.0000   -0.0037    0.0000    0.0000   -0.0000   -0.8253
    17 N1     *d1-       0.0000   -0.0000    0.0000   -0.0000    0.0000    0.0017   -0.0000   -0.0000    0.0000    0.4181
    18 N1     *d0        0.0000   -0.0000   -0.0000    0.0000   -0.0000   -0.0000   -0.0000    0.0064    0.8259    0.0000
    19 N1     *d0       -0.0000    0.0000   -0.0000    0.0000    0.0000    0.0000    0.0000   -0.0021   -0.4175   -0.0000
    20 N1     *d1+       0.0000   -0.0000   -0.0000   -0.0000    0.0000   -0.0000   -0.0037    0.0000   -0.0000    0.0000
    21 N1     *d1+      -0.0000    0.0000    0.0000    0.0000   -0.0000    0.0000    0.0017   -0.0000    0.0000   -0.0000
    22 N1     *d2+       0.0027   -0.0000   -0.0000   -0.0000   -0.0000    0.0000   -0.0000    0.0000   -0.0000   -0.0000
    23 N1     *d2+      -0.0014    0.0000    0.0000    0.0000    0.0000   -0.0000    0.0000   -0.0000    0.0000    0.0000
    24 N1     *f3-      -0.0000   -0.7206    0.0000   -0.0000   -0.6934   -0.0003   -0.0000    0.0000    0.0000   -0.0000
    25 N1     *f2-       0.0000   -0.0000    0.0000    0.0000   -0.0000   -0.0000   -0.0000    0.0000    0.0000   -0.0000
    26 N1     *f1-      -0.0000    0.0015   -0.0000    0.0000   -0.0015   -0.7082    0.0000    0.0000    0.0000    0.0029
    27 N1     *f0        0.0001   -0.0000   -0.0000    0.0000   -0.0000   -0.0000   -0.0000    0.6983   -0.0032   -0.0000
    28 N1     *f1+       0.0000   -0.0000   -0.0009   -0.0041    0.0000   -0.0000   -0.7082    0.0000    0.0000   -0.0000
    29 N1     *f2+       0.7097   -0.0000   -0.0000   -0.0000   -0.0000    0.0000   -0.0000    0.0000   -0.0000    0.0000
    30 N1     *f3+      -0.0000   -0.0000   -0.7206   -0.6933    0.0000    0.0000    0.0058    0.0000   -0.0000   -0.0000
    31 N2     1s        -0.0000    0.0000    0.0000   -0.0000    0.0000    0.0000    0.0000   -0.0087    0.0348    0.0000
    32 N2     2s        -0.0000    0.0000   -0.0000   -0.0000    0.0000    0.0000    0.0000   -0.0156    0.0704    0.0000
    33 N2     *s         0.0000   -0.0000   -0.0000    0.0000   -0.0000   -0.0000   -0.0000    0.0140   -0.0520   -0.0000
    34 N2     *s         0.0000   -0.0000    0.0000    0.0000   -0.0000   -0.0000   -0.0000    0.0062   -0.0387   -0.0000
    35 N2     2px       -0.0000    0.0000    0.0000    0.0000   -0.0000    0.0000    0.0064   -0.0000   -0.0000    0.0000
    36 N2     *px        0.0000   -0.0000   -0.0000   -0.0000    0.0000   -0.0000   -0.0069    0.0000    0.0000   -0.0000
    37 N2     *px       -0.0000    0.0000    0.0000    0.0000   -0.0000    0.0000    0.0008   -0.0000    0.0000    0.0000
    38 N2     2py        0.0000   -0.0000    0.0000   -0.0000    0.0000    0.0064   -0.0000   -0.0000   -0.0000   -0.0086
    39 N2     *py       -0.0000    0.0000   -0.0000    0.0000   -0.0000   -0.0069    0.0000    0.0000    0.0000    0.0110
    40 N2     *py        0.0000   -0.0000    0.0000   -0.0000    0.0000    0.0008   -0.0000   -0.0000   -0.0000   -0.0028
    41 N2     2pz        0.0000   -0.0000   -0.0000    0.0000   -0.0000   -0.0000   -0.0000    0.0337   -0.0456   -0.0000
    42 N2     *pz       -0.0000    0.0000    0.0000   -0.0000    0.0000    0.0000    0.0000   -0.0370    0.0533    0.0000
    43 N2     *pz        0.0000   -0.0000   -0.0000    0.0000   -0.0000   -0.0000   -0.0000    0.0044   -0.0097   -0.0000
    44 N2     *d2-      -0.0000    0.0000   -0.0000    0.0000   -0.0000   -0.0000   -0.0000    0.0000    0.0000   -0.0000
    45 N2     *d2-       0.0000   -0.0000    0.0000   -0.0000    0.0000    0.0000    0.0000   -0.0000   -0.0000    0.0000
    46 N2     *d1-       0.0000    0.0000   -0.0000   -0.0000   -0.0000   -0.0036    0.0000   -0.0000   -0.0000    0.8304
    47 N2     *d1-      -0.0000   -0.0000    0.0000    0.0000    0.0000    0.0017   -0.0000    0.0000    0.0000   -0.4206
    48 N2     *d0        0.0000   -0.0000    0.0000   -0.0000   -0.0000   -0.0000   -0.0000   -0.0065    0.8287   -0.0000
    49 N2     *d0       -0.0000    0.0000   -0.0000    0.0000    0.0000    0.0000    0.0000    0.0022   -0.4189    0.0000
    50 N2     *d1+      -0.0000   -0.0000   -0.0000   -0.0000    0.0000   -0.0000   -0.0036   -0.0000   -0.0000   -0.0000
    51 N2     *d1+       0.0000    0.0000    0.0000    0.0000   -0.0000    0.0000    0.0017    0.0000    0.0000    0.0000
    52 N2     *d2+      -0.0027    0.0000    0.0000   -0.0000   -0.0000    0.0000   -0.0000    0.0000    0.0000    0.0000
    53 N2     *d2+       0.0013   -0.0000   -0.0000    0.0000    0.0000   -0.0000    0.0000   -0.0000   -0.0000   -0.0000
    54 N2     *f3-      -0.0000   -0.6934    0.0000    0.0000    0.7206   -0.0025   -0.0000   -0.0000   -0.0000    0.0000
    55 N2     *f2-       0.0000   -0.0000    0.0000   -0.0000    0.0000    0.0000    0.0000   -0.0000    0.0000   -0.0000
    56 N2     *f1-      -0.0000   -0.0013    0.0000    0.0000    0.0007    0.7060   -0.0000    0.0000   -0.0000    0.0029
    57 N2     *f0       -0.0001    0.0000   -0.0000   -0.0000    0.0000    0.0000    0.0000    0.7156    0.0033   -0.0000
    58 N2     *f1+       0.0000    0.0000    0.0019    0.0048   -0.0000    0.0000    0.7060    0.0000   -0.0000   -0.0000
    59 N2     *f2+       0.7045   -0.0000   -0.0000    0.0000    0.0000   -0.0000    0.0000   -0.0000    0.0000    0.0000
    60 N2     *f3+      -0.0000   -0.0000   -0.6934    0.7206   -0.0000    0.0000   -0.0032   -0.0000    0.0000    0.0000


      Orbital                51        52        53        54        55        56        57        58        59        60
      Energy             0.0000    0.0000    0.0000    0.0000    0.0000    0.0000    0.0000    0.0000    0.0000    0.0000
      Occ. No.           0.0000    0.0000    0.0000    0.0000    0.0000    0.0000    0.0000    0.0000    0.0000    0.0000

     1 N1     1s         0.0000    0.0000   -0.0000    0.0000    0.0000    0.0000    0.0000    0.0611    1.6227   -1.6670
     2 N1     2s         0.0000    0.0000   -0.0000    0.0000    0.0000    0.0000    0.0000    0.1225    3.5229   -3.6622
     3 N1     *s        -0.0000   -0.0000    0.0000   -0.0000   -0.0000   -0.0000   -0.0000   -0.0920   -2.3086    2.3488
     4 N1     *s        -0.0000   -0.0000    0.0000   -0.0000   -0.0000   -0.0000   -0.0000   -0.0654   -2.1937    2.3314
     5 N1     2px        0.0087    0.0000    0.0000    0.0000    0.0000   -0.0000   -0.0154   -0.0000   -0.0000   -0.0000
     6 N1     *px       -0.0111   -0.0000   -0.0000   -0.0000   -0.0000    0.0000    0.0167    0.0000    0.0000    0.0000
     7 N1     *px        0.0028    0.0000   -0.0000    0.0000    0.0000   -0.0000   -0.0020    0.0000    0.0000    0.0000
     8 N1     2py        0.0000    0.0000   -0.0000    0.0000   -0.0000   -0.0154    0.0000   -0.0000   -0.0000    0.0000
     9 N1     *py       -0.0000   -0.0000    0.0000   -0.0000    0.0000    0.0167   -0.0000    0.0000   -0.0000   -0.0000
    10 N1     *py        0.0000    0.0000   -0.0000    0.0000   -0.0000   -0.0020    0.0000   -0.0000    0.0000   -0.0000
    11 N1     2pz        0.0000    0.0000    0.0000    0.0000    0.0000    0.0000    0.0000    0.0765    0.0616    0.1171
    12 N1     *pz       -0.0000   -0.0000   -0.0000   -0.0000   -0.0000   -0.0000   -0.0000   -0.0879   -0.0770   -0.1485
    13 N1     *pz       -0.0000    0.0000    0.0000    0.0000    0.0000    0.0000    0.0000    0.0171    0.0260    0.0538
    14 N1     *d2-      -0.0000    0.7929   -0.0000    0.8615    0.0000    0.0000    0.0000   -0.0000    0.0000   -0.0000
    15 N1     *d2-       0.0000   -0.4020    0.0000   -0.4367   -0.0000   -0.0000   -0.0000    0.0000   -0.0000    0.0000
    16 N1     *d1-       0.0000   -0.0000    0.0000    0.0000   -0.0000    0.8305   -0.0000   -0.0000   -0.0000    0.0000
    17 N1     *d1-      -0.0000    0.0000   -0.0000   -0.0000    0.0000   -0.4215    0.0000    0.0000    0.0000   -0.0000
    18 N1     *d0       -0.0000   -0.0000   -0.0000    0.0000    0.0000    0.0000    0.0000   -0.8289   -0.0224   -0.0380
    19 N1     *d0        0.0000    0.0000    0.0000   -0.0000   -0.0000   -0.0000   -0.0000    0.4241    0.0185    0.0332
    20 N1     *d1+       0.8253   -0.0000   -0.0000    0.0000    0.0000    0.0000    0.8305   -0.0000   -0.0000    0.0000
    21 N1     *d1+      -0.4181    0.0000    0.0000   -0.0000   -0.0000   -0.0000   -0.4215    0.0000    0.0000    0.0000
    22 N1     *d2+      -0.0000   -0.0000    0.5001   -0.0000    1.0587   -0.0000    0.0000   -0.0000    0.0000   -0.0000
    23 N1     *d2+       0.0000    0.0000   -0.2535    0.0000   -0.5367    0.0000   -0.0000    0.0000   -0.0000    0.0000
    24 N1     *f3-       0.0000    0.0000    0.0000   -0.0000    0.0000   -0.0000    0.0000    0.0000    0.0000    0.0000
    25 N1     *f2-       0.0000   -0.0022    0.0000   -0.0024   -0.0000   -0.0000   -0.0000    0.0000    0.0000    0.0000
    26 N1     *f1-      -0.0000    0.0000   -0.0000   -0.0000    0.0000   -0.0031    0.0000    0.0000   -0.0000   -0.0000
    27 N1     *f0        0.0000    0.0000    0.0000   -0.0000   -0.0000   -0.0000   -0.0000    0.0053    0.0031    0.0054
    28 N1     *f1+      -0.0029    0.0000    0.0000   -0.0000   -0.0000   -0.0000   -0.0031   -0.0000    0.0000   -0.0000
    29 N1     *f2+       0.0000    0.0000   -0.0014    0.0000   -0.0030    0.0000   -0.0000   -0.0000   -0.0000    0.0000
    30 N1     *f3+      -0.0000   -0.0000    0.0000   -0.0000    0.0000    0.0000    0.0000    0.0000   -0.0000    0.0000
    31 N2     1s        -0.0000   -0.0000   -0.0000    0.0000    0.0000    0.0000    0.0000   -0.0613    1.6265    1.6633
    32 N2     2s        -0.0000   -0.0000   -0.0000    0.0000    0.0000    0.0000    0.0000   -0.1229    3.5312    3.6542
    33 N2     *s         0.0000    0.0000    0.0000   -0.0000   -0.0000   -0.0000   -0.0000    0.0922   -2.3139   -2.3435
    34 N2     *s         0.0000    0.0000    0.0000   -0.0000   -0.0000   -0.0000   -0.0000    0.0655   -2.1989   -2.3264
    35 N2     2px        0.0086   -0.0000   -0.0000    0.0000    0.0000    0.0000    0.0154   -0.0000   -0.0000    0.0000
    36 N2     *px       -0.0110    0.0000    0.0000   -0.0000   -0.0000   -0.0000   -0.0168    0.0000    0.0000   -0.0000
    37 N2     *px        0.0028   -0.0000   -0.0000    0.0000    0.0000    0.0000    0.0021    0.0000   -0.0000   -0.0000
    38 N2     2py        0.0000   -0.0000    0.0000    0.0000   -0.0000    0.0154   -0.0000   -0.0000   -0.0000    0.0000
    39 N2     *py       -0.0000    0.0000   -0.0000   -0.0000    0.0000   -0.0168    0.0000    0.0000    0.0000   -0.0000
    40 N2     *py        0.0000   -0.0000    0.0000    0.0000   -0.0000    0.0021   -0.0000   -0.0000   -0.0000    0.0000
    41 N2     2pz        0.0000    0.0000    0.0000   -0.0000   -0.0000   -0.0000   -0.0000    0.0766   -0.0613    0.1173
    42 N2     *pz       -0.0000   -0.0000   -0.0000    0.0000    0.0000    0.0000    0.0000   -0.0881    0.0767   -0.1487
    43 N2     *pz        0.0000    0.0000    0.0000   -0.0000   -0.0000   -0.0000   -0.0000    0.0171   -0.0259    0.0539
    44 N2     *d2-       0.0000    0.8615    0.0000   -0.7929   -0.0000    0.0000    0.0000   -0.0000   -0.0000   -0.0000
    45 N2     *d2-      -0.0000   -0.4367   -0.0000    0.4020    0.0000   -0.0000   -0.0000    0.0000    0.0000    0.0000
    46 N2     *d1-      -0.0000   -0.0000    0.0000   -0.0000    0.0000    0.8255   -0.0000    0.0000   -0.0000   -0.0000
    47 N2     *d1-       0.0000    0.0000   -0.0000    0.0000   -0.0000   -0.4189    0.0000   -0.0000    0.0000    0.0000
    48 N2     *d0       -0.0000    0.0000   -0.0000    0.0000    0.0000    0.0000    0.0000    0.8261   -0.0223    0.0381
    49 N2     *d0        0.0000   -0.0000    0.0000   -0.0000   -0.0000   -0.0000   -0.0000   -0.4227    0.0184   -0.0332
    50 N2     *d1+      -0.8304   -0.0000   -0.0000   -0.0000   -0.0000    0.0000    0.8255    0.0000   -0.0000    0.0000
    51 N2     *d1+       0.4206    0.0000    0.0000    0.0000    0.0000   -0.0000   -0.4189   -0.0000   -0.0000   -0.0000
    52 N2     *d2+       0.0000    0.0000    1.0587    0.0000   -0.5001   -0.0000    0.0000   -0.0000    0.0000    0.0000
    53 N2     *d2+      -0.0000   -0.0000   -0.5367   -0.0000    0.2535    0.0000   -0.0000    0.0000   -0.0000   -0.0000
    54 N2     *f3-      -0.0000   -0.0000    0.0000    0.0000    0.0000    0.0000   -0.0000    0.0000    0.0000   -0.0000
    55 N2     *f2-       0.0000    0.0024    0.0000   -0.0022   -0.0000    0.0000    0.0000   -0.0000    0.0000   -0.0000
    56 N2     *f1-      -0.0000   -0.0000    0.0000   -0.0000    0.0000    0.0031   -0.0000    0.0000    0.0000   -0.0000
    57 N2     *f0       -0.0000    0.0000    0.0000    0.0000    0.0000    0.0000    0.0000    0.0052   -0.0031    0.0055
    58 N2     *f1+      -0.0029   -0.0000   -0.0000   -0.0000   -0.0000    0.0000    0.0031   -0.0000   -0.0000    0.0000
    59 N2     *f2+       0.0000    0.0000    0.0030    0.0000   -0.0014   -0.0000    0.0000   -0.0000    0.0000    0.0000
    60 N2     *f3+       0.0000    0.0000   -0.0000    0.0000   -0.0000   -0.0000   -0.0000   -0.0000   -0.0000   -0.0000
--

      Von Neumann Entropy (Root   1) =  2.99740


      Mulliken population analysis for root number:  1
      -----------------------------------------------


++    Molecular charges:
      ------------------

      Mulliken charges per centre and basis function type
      ---------------------------------------------------

                N1      N2    
      1s       2.0016  2.0016
      2s       2.0716  2.0717
      2px      0.9181  0.9181
      2pz      0.9083  0.9083
      2py      0.9181  0.9181
      *s      -0.0725 -0.0725
      *px      0.0818  0.0818
      *pz      0.0907  0.0907
      *py      0.0818  0.0818
      *d2+     0.0000  0.0000
      *d1+     0.0001  0.0001
      *d0      0.0003  0.0003
      *d1-     0.0001  0.0001
      *d2-     0.0000  0.0000
      *f3+     0.0000  0.0000
      *f2+     0.0000  0.0000
      *f1+     0.0000  0.0000
      *f0      0.0000  0.0000
      *f1-     0.0000  0.0000
      *f2-     0.0000  0.0000
      *f3-     0.0000  0.0000
      Total    7.0000  7.0000

      N-E     -0.0000  0.0000

      Total electronic charge=   14.000000

      Total            charge=   -0.000000
--



      Expectation values of various properties for root number:  1
      -----------------------------------------------------------

      Properties not supported for DMRGSCF 

++    Molecular properties:
      ---------------------

      Charge (e):
                      =   -0.0000
      Dipole Moment (Debye):
      Origin of the operator (Ang)=    0.0000    0.0000    0.0000
                   X= -4.3114E-09               Y= -3.8864E-07               Z=  4.9896E-06           Total=  5.0048E-06
      Quadrupole Moment (Debye*Ang):
      Origin of the operator (Ang)=    0.0000    0.0000    1.8000
                  XX= -1.2034E+01              XY= -3.5814E-10              XZ=  7.7551E-09              YY= -1.2034E+01
                  YZ= -4.7855E-07              ZZ= -1.1786E+01
      In traceless form (Debye*Ang)
                  XX= -1.2422E-01              XY= -5.3721E-10              XZ=  1.1633E-08              YY= -1.2422E-01
                  YZ= -7.1783E-07              ZZ=  2.4843E-01
--


      Input file to MOLDEN was generated!

      Average orbitals are written to the RASORB file
      Natural orbitals for root   1 are written to the RASORB.1 file
      Spin density orbitals for root   1 are written to the SPDORB.1 file

--- Stop Module: dmrgscf at Tue Apr  9 00:43:23 2024 /rc=_RC_ALL_IS_WELL_ ---
*** files: n2.GssOrb n2.guessorb.h5 n2.rasscf.molden n2.guessorb.molden n2.scf.molden n2.RasOrb n2.RasOrb.1 n2.dmrgscf.h5 n2.ScfOrb n2.scf.h5 n2.SpdOrb.1 xmldump
    saved to directory /public/home/xzzeng/work/HQC/N2/cc-pvtz/NO/PES/entropy/3.6/results/work_dir/n2/dmrg
--- Module dmrgscf spent 4 seconds ---

.##################.
.# Happy landing! #.
.##################.

    Timing: Wall=4.18 User=2.78 System=0.22
