[Molden Format]
[N_Atoms]
                    2
[Atoms] (AU)
N1          1      7           0.00000000      0.00000000      0.00000000
N2          2      7           0.00000000      0.00000000      6.80301405
[5D]
[7F]
[Charge] (Mulliken)
  -1.7179563638336504E-007
   1.7179552180834889E-007
[GTO] (AU)
   1
   s  10
  1.142000000E+04  5.229996559E-04
  1.712000000E+03  4.044997339E-03
  3.893000000E+02  2.077498633E-02
  1.100000000E+02  8.072694689E-02
  3.557000000E+01  2.330738467E-01
  1.254000000E+01  4.335007148E-01
  4.644000000E+00  3.474717714E-01
  1.293000000E+00  4.126197285E-02
  5.118000000E-01 -8.507994403E-03
  1.787000000E-01  2.383998432E-03
   s  10
  1.142000000E+04 -1.149999544E-04
  1.712000000E+03 -8.949996452E-04
  3.893000000E+02 -4.623998167E-03
  1.100000000E+02 -1.852799265E-02
  3.557000000E+01 -5.733897727E-02
  1.254000000E+01 -1.320759476E-01
  4.644000000E+00 -1.725099316E-01
  1.293000000E+00  1.518139398E-01
  5.118000000E-01  5.999437621E-01
  1.787000000E-01  3.874618464E-01
   s   1
  1.293000000E+00  1.000000000E+00
   s   1
  1.787000000E-01  1.000000000E+00
   p   5
  2.663000000E+01  1.467000345E-02
  5.948000000E+00  9.176402155E-02
  1.742000000E+00  2.986830701E-01
  5.550000000E-01  4.984871171E-01
  1.725000000E-01  3.370230791E-01
   p   1
  5.550000000E-01  1.000000000E+00
   p   1
  1.725000000E-01  1.000000000E+00
   d   1
  1.654000000E+00  1.000000000E+00
   d   1
  4.690000000E-01  1.000000000E+00
   f   1
  1.093000000E+00  1.000000000E+00
 
   2
   s  10
  1.142000000E+04  5.229996559E-04
  1.712000000E+03  4.044997339E-03
  3.893000000E+02  2.077498633E-02
  1.100000000E+02  8.072694689E-02
  3.557000000E+01  2.330738467E-01
  1.254000000E+01  4.335007148E-01
  4.644000000E+00  3.474717714E-01
  1.293000000E+00  4.126197285E-02
  5.118000000E-01 -8.507994403E-03
  1.787000000E-01  2.383998432E-03
   s  10
  1.142000000E+04 -1.149999544E-04
  1.712000000E+03 -8.949996452E-04
  3.893000000E+02 -4.623998167E-03
  1.100000000E+02 -1.852799265E-02
  3.557000000E+01 -5.733897727E-02
  1.254000000E+01 -1.320759476E-01
  4.644000000E+00 -1.725099316E-01
  1.293000000E+00  1.518139398E-01
  5.118000000E-01  5.999437621E-01
  1.787000000E-01  3.874618464E-01
   s   1
  1.293000000E+00  1.000000000E+00
   s   1
  1.787000000E-01  1.000000000E+00
   p   5
  2.663000000E+01  1.467000345E-02
  5.948000000E+00  9.176402155E-02
  1.742000000E+00  2.986830701E-01
  5.550000000E-01  4.984871171E-01
  1.725000000E-01  3.370230791E-01
   p   1
  5.550000000E-01  1.000000000E+00
   p   1
  1.725000000E-01  1.000000000E+00
   d   1
  1.654000000E+00  1.000000000E+00
   d   1
  4.690000000E-01  1.000000000E+00
   f   1
  1.093000000E+00  1.000000000E+00
 
[MO]
Sym=     1a  
Ene=     0.0000
Spin= Alpha
Occup=    0.00000
   1         0.62363715
   2         0.00030313
   3        -0.00091593
   4        -0.00017239
   5         0.00000000
   6        -0.00000000
   7         0.00045858
   8        -0.00000000
   9        -0.00000000
  10        -0.00026478
  11        -0.00000000
  12        -0.00000000
  13        -0.00016003
  14        -0.00000618
  15         0.00000000
  16        -0.00000000
  17        -0.00000000
  18         0.00000000
  19        -0.00000930
  20        -0.00000000
  21        -0.00000000
  22        -0.00000000
  23        -0.00000000
  24         0.00000061
  25        -0.00000000
  26        -0.00000000
  27         0.00000000
  28         0.00000000
  29         0.00000000
  30         0.00000000
  31         0.78279219
  32         0.00034498
  33        -0.00113832
  34        -0.00018842
  35         0.00000000
  36        -0.00000000
  37        -0.00058444
  38        -0.00000000
  39         0.00000000
  40         0.00037130
  41        -0.00000000
  42        -0.00000000
  43         0.00017352
  44        -0.00001104
  45         0.00000000
  46         0.00000000
  47         0.00000000
  48        -0.00000000
  49        -0.00000663
  50        -0.00000000
  51        -0.00000000
  52         0.00000000
  53         0.00000000
  54        -0.00000124
  55         0.00000000
  56         0.00000000
  57        -0.00000000
  58         0.00000000
  59        -0.00000000
  60        -0.00000000
Sym=     2a  
Ene=     0.0000
Spin= Alpha
Occup=    0.00000
   1        -0.78272710
   2        -0.00015217
   3         0.00106222
   4         0.00004300
   5        -0.00000000
   6        -0.00000000
   7        -0.00061593
   8         0.00000000
   9         0.00000000
  10         0.00050811
  11         0.00000000
  12         0.00000000
  13         0.00007739
  14         0.00002068
  15         0.00000000
  16        -0.00000000
  17         0.00000000
  18        -0.00000000
  19        -0.00001035
  20        -0.00000000
  21         0.00000000
  22         0.00000000
  23         0.00000000
  24        -0.00000244
  25         0.00000000
  26         0.00000000
  27        -0.00000000
  28         0.00000000
  29        -0.00000000
  30        -0.00000000
  31         0.62356802
  32         0.00009232
  33        -0.00083695
  34        -0.00001140
  35        -0.00000000
  36        -0.00000000
  37        -0.00049799
  38         0.00000000
  39         0.00000000
  40         0.00043631
  41         0.00000000
  42        -0.00000000
  43         0.00003949
  44        -0.00001912
  45        -0.00000000
  46        -0.00000000
  47         0.00000000
  48         0.00000000
  49         0.00001235
  50         0.00000000
  51        -0.00000000
  52         0.00000000
  53        -0.00000000
  54        -0.00000232
  55        -0.00000000
  56         0.00000000
  57        -0.00000000
  58        -0.00000000
  59        -0.00000000
  60        -0.00000000
Sym=     3a  
Ene=     0.0000
Spin= Alpha
Occup=    0.00000
   1         0.00061042
   2         0.72663687
   3         0.00850081
   4        -0.02949212
   5         0.00000000
   6        -0.00000000
   7         0.00078971
   8        -0.00000000
   9        -0.00000000
  10        -0.00079787
  11         0.00000000
  12        -0.00000000
  13         0.00411393
  14        -0.00013164
  15         0.00000000
  16        -0.00000000
  17        -0.00000000
  18         0.00000000
  19         0.00068961
  20        -0.00000000
  21         0.00000000
  22         0.00000000
  23        -0.00000000
  24         0.00005949
  25        -0.00000000
  26         0.00000000
  27         0.00000000
  28        -0.00000000
  29        -0.00000000
  30        -0.00000000
  31         0.00061819
  32         0.72680130
  33         0.00849276
  34        -0.02951429
  35        -0.00000000
  36        -0.00000000
  37        -0.00078588
  38        -0.00000000
  39        -0.00000000
  40         0.00079797
  41        -0.00000000
  42         0.00000000
  43        -0.00411340
  44        -0.00013181
  45         0.00000000
  46         0.00000000
  47        -0.00000000
  48        -0.00000000
  49         0.00068963
  50        -0.00000000
  51         0.00000000
  52         0.00000000
  53         0.00000000
  54        -0.00006047
  55        -0.00000000
  56        -0.00000000
  57        -0.00000000
  58        -0.00000000
  59        -0.00000000
  60        -0.00000000
Sym=     4a  
Ene=     0.0000
Spin= Alpha
Occup=    0.00000
   1        -0.00258655
   2        -0.73747701
   3        -0.00786625
   4         0.03915482
   5         0.00000000
   6         0.00000000
   7         0.01819926
   8        -0.00000000
   9         0.00000000
  10        -0.00032813
  11         0.00000000
  12        -0.00000000
  13         0.00150947
  14         0.00005516
  15         0.00000000
  16         0.00000000
  17         0.00000000
  18        -0.00000000
  19         0.00092547
  20        -0.00000000
  21        -0.00000000
  22        -0.00000000
  23         0.00000000
  24         0.00005093
  25         0.00000000
  26        -0.00000000
  27        -0.00000000
  28         0.00000000
  29        -0.00000000
  30        -0.00000000
  31         0.00259368
  32         0.73735332
  33         0.00785493
  34        -0.03916329
  35        -0.00000000
  36        -0.00000000
  37         0.01819917
  38        -0.00000000
  39         0.00000000
  40        -0.00032713
  41        -0.00000000
  42        -0.00000000
  43         0.00150967
  44        -0.00005526
  45        -0.00000000
  46        -0.00000000
  47        -0.00000000
  48        -0.00000000
  49        -0.00092551
  50         0.00000000
  51         0.00000000
  52         0.00000000
  53         0.00000000
  54         0.00004990
  55         0.00000000
  56         0.00000000
  57        -0.00000000
  58         0.00000000
  59        -0.00000000
  60        -0.00000000
Sym=     5a  
Ene=     0.0000
Spin= Alpha
Occup=    0.00000
   1         0.00829721
   2         0.05006990
   3        -0.00255869
   4        -0.04104255
   5        -0.00000000
   6        -0.00000000
   7        -0.62983735
   8         0.00000000
   9         0.00000000
  10         0.02272537
  11        -0.00000000
  12        -0.00000000
  13        -0.10936208
  14        -0.00009337
  15        -0.00000000
  16        -0.00000000
  17         0.00000000
  18        -0.00000000
  19        -0.00836713
  20        -0.00000000
  21         0.00000000
  22        -0.00000000
  23         0.00000000
  24        -0.00045163
  25        -0.00000000
  26         0.00000000
  27        -0.00000000
  28        -0.00000000
  29         0.00000000
  30        -0.00000000
  31         0.00829866
  32         0.05007365
  33        -0.00256020
  34        -0.04104650
  35        -0.00000000
  36         0.00000000
  37         0.62983497
  38         0.00000000
  39        -0.00000000
  40        -0.02271904
  41        -0.00000000
  42         0.00000000
  43         0.10936739
  44        -0.00009334
  45        -0.00000000
  46        -0.00000000
  47         0.00000000
  48         0.00000000
  49        -0.00836753
  50         0.00000000
  51         0.00000000
  52        -0.00000000
  53        -0.00000000
  54         0.00045119
  55        -0.00000000
  56        -0.00000000
  57         0.00000000
  58        -0.00000000
  59         0.00000000
  60         0.00000000
Sym=     6a  
Ene=     0.0000
Spin= Alpha
Occup=    0.00000
   1         0.00000000
   2         0.00000000
   3        -0.00000000
   4        -0.00000000
   5         0.00000191
   6         0.64992193
   7         0.00000000
   8        -0.00000006
   9        -0.01892101
  10        -0.00000000
  11         0.00000028
  12         0.09429456
  13         0.00000000
  14         0.00000000
  15         0.00000000
  16         0.00024863
  17        -0.00000000
  18        -0.00000000
  19        -0.00000000
  20         0.00000001
  21         0.00425806
  22         0.00000000
  23         0.00000000
  24         0.00000000
  25         0.00000000
  26         0.00023493
  27         0.00000000
  28         0.00000000
  29        -0.00000000
  30         0.00000001
  31        -0.00000000
  32        -0.00000000
  33         0.00000000
  34         0.00000000
  35         0.00000191
  36         0.64992115
  37         0.00000000
  38        -0.00000006
  39        -0.01892460
  40        -0.00000000
  41         0.00000028
  42         0.09429318
  43         0.00000000
  44        -0.00000000
  45        -0.00000000
  46        -0.00024859
  47        -0.00000000
  48         0.00000000
  49         0.00000000
  50        -0.00000001
  51        -0.00425800
  52         0.00000000
  53        -0.00000000
  54         0.00000000
  55         0.00000000
  56         0.00023503
  57         0.00000000
  58        -0.00000000
  59         0.00000000
  60        -0.00000001
Sym=     7a  
Ene=     0.0000
Spin= Alpha
Occup=    0.00000
   1         0.00000000
   2         0.00000000
   3        -0.00000000
   4        -0.00000000
   5         0.64992168
   6        -0.00000191
   7        -0.00000000
   8        -0.01892100
   9         0.00000006
  10         0.00000000
  11         0.09429454
  12        -0.00000028
  13        -0.00000000
  14        -0.00000000
  15         0.00024863
  16        -0.00000000
  17         0.00000000
  18         0.00000000
  19        -0.00000000
  20         0.00425806
  21        -0.00000001
  22         0.00000000
  23        -0.00000000
  24        -0.00000000
  25         0.00023493
  26        -0.00000000
  27         0.00000000
  28        -0.00000000
  29         0.00000000
  30         0.00000000
  31         0.00000000
  32         0.00000000
  33        -0.00000000
  34        -0.00000000
  35         0.64992140
  36        -0.00000191
  37         0.00000000
  38        -0.01892461
  39         0.00000006
  40        -0.00000000
  41         0.09429320
  42        -0.00000028
  43         0.00000000
  44        -0.00000000
  45        -0.00024859
  46         0.00000000
  47        -0.00000000
  48         0.00000000
  49        -0.00000000
  50        -0.00425800
  51         0.00000001
  52        -0.00000000
  53        -0.00000000
  54         0.00000000
  55         0.00023503
  56        -0.00000000
  57         0.00000000
  58        -0.00000000
  59         0.00000002
  60         0.00000000
Sym=     8a  
Ene=     0.0000
Spin= Alpha
Occup=    0.00000
   1        -0.00000000
   2        -0.00000000
   3         0.00000000
   4         0.00000000
   5        -0.00000117
   6        -0.65371551
   7         0.00000000
   8         0.00000003
   9         0.01683994
  10        -0.00000000
  11        -0.00000016
  12        -0.09088491
  13         0.00000000
  14        -0.00000000
  15        -0.00000000
  16        -0.00046970
  17        -0.00000000
  18        -0.00000000
  19         0.00000000
  20         0.00000001
  21         0.00478324
  22        -0.00000000
  23        -0.00000000
  24        -0.00000000
  25         0.00000000
  26         0.00020573
  27        -0.00000000
  28        -0.00000000
  29         0.00000000
  30        -0.00000000
  31        -0.00000000
  32        -0.00000000
  33         0.00000000
  34         0.00000000
  35         0.00000117
  36         0.65372459
  37        -0.00000000
  38        -0.00000003
  39        -0.01684397
  40         0.00000000
  41         0.00000016
  42         0.09088485
  43        -0.00000000
  44         0.00000000
  45        -0.00000000
  46        -0.00046970
  47         0.00000000
  48        -0.00000000
  49         0.00000000
  50         0.00000001
  51         0.00478338
  52         0.00000000
  53        -0.00000000
  54         0.00000000
  55        -0.00000000
  56        -0.00020572
  57         0.00000000
  58        -0.00000000
  59         0.00000000
  60         0.00000000
Sym=     9a  
Ene=     0.0000
Spin= Alpha
Occup=    0.00000
   1        -0.00000000
   2        -0.00000000
   3        -0.00000000
   4         0.00000000
   5        -0.65371573
   6         0.00000117
   7        -0.00000000
   8         0.01683995
   9        -0.00000003
  10         0.00000000
  11        -0.09088496
  12         0.00000016
  13        -0.00000000
  14        -0.00000000
  15        -0.00046970
  16         0.00000000
  17        -0.00000000
  18         0.00000000
  19         0.00000000
  20         0.00478324
  21        -0.00000001
  22        -0.00000000
  23         0.00000000
  24         0.00000000
  25         0.00020573
  26        -0.00000000
  27        -0.00000000
  28         0.00000000
  29        -0.00000000
  30        -0.00000000
  31        -0.00000000
  32         0.00000000
  33         0.00000000
  34        -0.00000000
  35         0.65372436
  36        -0.00000117
  37        -0.00000000
  38        -0.01684397
  39         0.00000003
  40         0.00000000
  41         0.09088480
  42        -0.00000016
  43        -0.00000000
  44         0.00000000
  45        -0.00046970
  46         0.00000000
  47        -0.00000000
  48        -0.00000000
  49        -0.00000000
  50         0.00478338
  51        -0.00000001
  52        -0.00000000
  53        -0.00000000
  54         0.00000000
  55        -0.00020572
  56         0.00000000
  57         0.00000000
  58        -0.00000000
  59         0.00000000
  60        -0.00000000
Sym=    10a  
Ene=     0.0000
Spin= Alpha
Occup=    0.00000
   1         0.00518012
   2         0.04962265
   3        -0.00195795
   4        -0.02468208
   5        -0.00000000
   6        -0.00000000
   7         0.66270399
   8         0.00000000
   9         0.00000000
  10        -0.01553423
  11        -0.00000000
  12        -0.00000000
  13         0.08980085
  14         0.00064244
  15        -0.00000000
  16        -0.00000000
  17         0.00000000
  18         0.00000000
  19        -0.00702965
  20         0.00000000
  21        -0.00000000
  22         0.00000000
  23        -0.00000000
  24        -0.00032825
  25         0.00000000
  26        -0.00000000
  27         0.00000000
  28         0.00000000
  29         0.00000000
  30        -0.00000000
  31        -0.00518040
  32        -0.04962390
  33         0.00195834
  34         0.02468267
  35         0.00000000
  36        -0.00000000
  37         0.66268656
  38        -0.00000000
  39         0.00000000
  40        -0.01552874
  41         0.00000000
  42        -0.00000000
  43         0.08980647
  44        -0.00064256
  45        -0.00000000
  46         0.00000000
  47        -0.00000000
  48         0.00000000
  49         0.00703002
  50         0.00000000
  51         0.00000000
  52        -0.00000000
  53        -0.00000000
  54        -0.00032845
  55        -0.00000000
  56        -0.00000000
  57        -0.00000000
  58        -0.00000000
  59        -0.00000000
  60        -0.00000000
Sym=    11a  
Ene=     0.0000
Spin= Alpha
Occup=    0.00000
   1        -0.14230911
   2        -0.69464181
   3         0.04602958
   4         0.72090531
   5        -0.00000000
   6        -0.00000000
   7        -0.46216273
   8        -0.00000000
   9        -0.00000000
  10        -0.30018487
  11         0.00000000
  12         0.00000000
  13         0.83365980
  14        -0.00308776
  15         0.00000000
  16         0.00000000
  17        -0.00000000
  18        -0.00000000
  19         0.03667352
  20        -0.00000000
  21        -0.00000000
  22         0.00000001
  23         0.00000000
  24         0.00115472
  25         0.00000000
  26         0.00000000
  27         0.00000001
  28        -0.00000000
  29         0.00000000
  30        -0.00000000
  31        -0.14234926
  32        -0.69480756
  33         0.04605399
  34         0.72107284
  35        -0.00000000
  36         0.00000000
  37         0.46213215
  38        -0.00000000
  39         0.00000000
  40         0.30016889
  41         0.00000000
  42        -0.00000000
  43        -0.83359836
  44        -0.00308734
  45         0.00000000
  46         0.00000000
  47        -0.00000000
  48         0.00000000
  49         0.03667670
  50        -0.00000000
  51        -0.00000000
  52         0.00000000
  53        -0.00000000
  54        -0.00115411
  55        -0.00000000
  56        -0.00000000
  57        -0.00000001
  58        -0.00000000
  59         0.00000000
  60         0.00000000
Sym=    12a  
Ene=     0.0000
Spin= Alpha
Occup=    0.00000
   1         0.00000000
   2         0.00000000
   3        -0.00000000
   4        -0.00000000
   5        -0.00000012
   6        -0.49354866
   7        -0.00000000
   8        -0.00000008
   9        -0.34719420
  10        -0.00000000
  11         0.00000024
  12         1.00354784
  13         0.00000000
  14         0.00000000
  15        -0.00000000
  16        -0.00099941
  17        -0.00000000
  18         0.00000000
  19        -0.00000000
  20         0.00000000
  21         0.00921599
  22        -0.00000000
  23        -0.00000000
  24        -0.00000000
  25         0.00000000
  26         0.00035368
  27        -0.00000000
  28        -0.00000000
  29         0.00000000
  30        -0.00000000
  31        -0.00000000
  32        -0.00000000
  33         0.00000000
  34         0.00000000
  35        -0.00000012
  36        -0.49358055
  37        -0.00000000
  38        -0.00000008
  39        -0.34721128
  40        -0.00000000
  41         0.00000024
  42         1.00360782
  43         0.00000000
  44        -0.00000000
  45         0.00000000
  46         0.00100005
  47        -0.00000000
  48         0.00000000
  49         0.00000000
  50        -0.00000000
  51        -0.00921599
  52         0.00000000
  53        -0.00000000
  54        -0.00000000
  55         0.00000000
  56         0.00035401
  57        -0.00000000
  58         0.00000000
  59        -0.00000000
  60        -0.00000002
Sym=    13a  
Ene=     0.0000
Spin= Alpha
Occup=    0.00000
   1         0.00000000
   2         0.00000000
   3        -0.00000000
   4        -0.00000000
   5        -0.49354864
   6         0.00000012
   7         0.00000000
   8        -0.34719419
   9         0.00000008
  10         0.00000000
  11         1.00354779
  12        -0.00000024
  13        -0.00000000
  14        -0.00000000
  15        -0.00099941
  16         0.00000000
  17        -0.00000000
  18         0.00000000
  19         0.00000000
  20         0.00921599
  21        -0.00000000
  22        -0.00000000
  23         0.00000000
  24        -0.00000000
  25         0.00035368
  26        -0.00000000
  27        -0.00000000
  28         0.00000000
  29         0.00000001
  30        -0.00000000
  31         0.00000000
  32         0.00000000
  33        -0.00000000
  34        -0.00000000
  35        -0.49358057
  36         0.00000012
  37        -0.00000000
  38        -0.34721129
  39         0.00000008
  40        -0.00000000
  41         1.00360787
  42        -0.00000024
  43         0.00000000
  44        -0.00000000
  45         0.00100005
  46        -0.00000000
  47         0.00000000
  48         0.00000000
  49         0.00000000
  50        -0.00921599
  51         0.00000000
  52         0.00000000
  53        -0.00000000
  54         0.00000000
  55         0.00035401
  56        -0.00000000
  57        -0.00000000
  58         0.00000000
  59         0.00000003
  60         0.00000000
Sym=    14a  
Ene=     0.0000
Spin= Alpha
Occup=    0.00000
   1        -0.00000000
   2        -0.00000000
   3         0.00000000
   4         0.00000000
   5         0.00000009
   6         0.50244702
   7        -0.00000000
   8         0.00000006
   9         0.34384632
  10        -0.00000000
  11        -0.00000019
  12        -1.03170586
  13        -0.00000000
  14        -0.00000000
  15        -0.00000000
  16        -0.00088680
  17         0.00000000
  18        -0.00000000
  19         0.00000000
  20         0.00000000
  21         0.01280345
  22         0.00000000
  23         0.00000000
  24         0.00000000
  25         0.00000000
  26         0.00041764
  27         0.00000000
  28        -0.00000000
  29        -0.00000000
  30         0.00000002
  31        -0.00000000
  32        -0.00000000
  33         0.00000000
  34         0.00000000
  35        -0.00000009
  36        -0.50242115
  37         0.00000000
  38        -0.00000006
  39        -0.34382386
  40         0.00000000
  41         0.00000019
  42         1.03164843
  43        -0.00000000
  44        -0.00000000
  45        -0.00000000
  46        -0.00088624
  47        -0.00000000
  48         0.00000000
  49         0.00000000
  50         0.00000000
  51         0.01280382
  52         0.00000000
  53        -0.00000000
  54        -0.00000000
  55        -0.00000000
  56        -0.00041759
  57        -0.00000000
  58        -0.00000000
  59        -0.00000000
  60         0.00000003
Sym=    15a  
Ene=     0.0000
Spin= Alpha
Occup=    0.00000
   1         0.00000000
   2         0.00000000
   3        -0.00000000
   4        -0.00000000
   5        -0.50244705
   6         0.00000009
   7        -0.00000000
   8        -0.34384634
   9         0.00000006
  10        -0.00000000
  11         1.03170590
  12        -0.00000019
  13         0.00000000
  14         0.00000000
  15         0.00088680
  16        -0.00000000
  17        -0.00000000
  18         0.00000000
  19        -0.00000000
  20        -0.01280345
  21         0.00000000
  22        -0.00000000
  23         0.00000000
  24        -0.00000000
  25        -0.00041764
  26         0.00000000
  27         0.00000000
  28         0.00000000
  29         0.00000001
  30        -0.00000000
  31        -0.00000000
  32        -0.00000000
  33         0.00000000
  34         0.00000000
  35         0.50242112
  36        -0.00000009
  37        -0.00000000
  38         0.34382384
  39        -0.00000006
  40        -0.00000000
  41        -1.03164838
  42         0.00000019
  43         0.00000000
  44         0.00000000
  45         0.00088624
  46        -0.00000000
  47        -0.00000000
  48        -0.00000000
  49         0.00000000
  50        -0.01280382
  51         0.00000000
  52        -0.00000000
  53         0.00000000
  54         0.00000000
  55         0.00041759
  56        -0.00000000
  57         0.00000000
  58        -0.00000000
  59         0.00000004
  60        -0.00000000
Sym=    16a  
Ene=     0.0000
Spin= Alpha
Occup=    0.00000
   1         0.25165559
   2         1.22248929
   3        -0.07138459
   4        -1.31037260
   5         0.00000000
   6         0.00000000
   7        -0.34246066
   8         0.00000000
   9         0.00000000
  10        -0.24898280
  11        -0.00000000
  12        -0.00000000
  13         0.73205568
  14         0.00102122
  15         0.00000000
  16        -0.00000000
  17         0.00000000
  18         0.00000000
  19        -0.01798627
  20         0.00000000
  21         0.00000000
  22         0.00000000
  23        -0.00000000
  24        -0.00053168
  25         0.00000000
  26         0.00000000
  27         0.00000000
  28        -0.00000000
  29        -0.00000000
  30        -0.00000000
  31        -0.25199683
  32        -1.22407924
  33         0.07150716
  34         1.31206872
  35        -0.00000000
  36         0.00000000
  37        -0.34272326
  38        -0.00000000
  39         0.00000000
  40        -0.24916261
  41         0.00000000
  42        -0.00000000
  43         0.73259132
  44        -0.00102174
  45        -0.00000000
  46         0.00000000
  47         0.00000000
  48         0.00000000
  49         0.01799093
  50         0.00000000
  51        -0.00000000
  52        -0.00000000
  53        -0.00000000
  54        -0.00053159
  55        -0.00000000
  56         0.00000000
  57         0.00000000
  58         0.00000000
  59         0.00000000
  60         0.00000000
Sym=    17a  
Ene=     0.0000
Spin= Alpha
Occup=    0.00000
   1        -0.32211040
   2        -1.55773376
   3         0.09127287
   4         1.67971348
   5        -0.00000000
   6        -0.00000000
   7         0.21414716
   8        -0.00000000
   9        -0.00000000
  10         0.13933021
  11         0.00000000
  12         0.00000000
  13        -0.43747475
  14        -0.00027473
  15         0.00000000
  16         0.00000000
  17        -0.00000000
  18        -0.00000000
  19         0.00296093
  20        -0.00000000
  21        -0.00000000
  22        -0.00000000
  23         0.00000000
  24         0.00002099
  25         0.00000000
  26        -0.00000000
  27        -0.00000000
  28         0.00000000
  29         0.00000000
  30        -0.00000000
  31        -0.32190657
  32        -1.55666960
  33         0.09124629
  34         1.67855233
  35        -0.00000000
  36         0.00000000
  37        -0.21374532
  38        -0.00000000
  39         0.00000000
  40        -0.13904730
  41         0.00000000
  42        -0.00000000
  43         0.43661723
  44        -0.00027320
  45         0.00000000
  46         0.00000000
  47         0.00000000
  48         0.00000000
  49         0.00293909
  50         0.00000000
  51        -0.00000000
  52        -0.00000001
  53        -0.00000000
  54        -0.00002026
  55         0.00000000
  56         0.00000000
  57         0.00000000
  58         0.00000000
  59        -0.00000000
  60        -0.00000000
Sym=    18a  
Ene=     0.0000
Spin= Alpha
Occup=    0.00000
   1        -0.24467490
   2        -1.20434018
   3         0.05218684
   4         1.33623172
   5         0.00000000
   6         0.00000000
   7        -0.38454303
   8        -0.00000000
   9         0.00000000
  10        -0.24153443
  11        -0.00000000
  12        -0.00000000
  13         0.83737569
  14         0.00573364
  15        -0.00000000
  16         0.00000000
  17        -0.00000000
  18        -0.00000000
  19        -0.08924534
  20        -0.00000000
  21        -0.00000000
  22        -0.00000001
  23         0.00000000
  24        -0.00175419
  25        -0.00000000
  26         0.00000000
  27        -0.00000000
  28        -0.00000000
  29         0.00000000
  30        -0.00000000
  31         0.24465640
  32         1.20419587
  33        -0.05220592
  34        -1.33605688
  35        -0.00000000
  36         0.00000000
  37        -0.38455803
  38        -0.00000000
  39         0.00000000
  40        -0.24155036
  41         0.00000000
  42        -0.00000000
  43         0.83741238
  44        -0.00573486
  45        -0.00000000
  46        -0.00000000
  47        -0.00000000
  48        -0.00000000
  49         0.08924685
  50         0.00000000
  51         0.00000000
  52         0.00000001
  53         0.00000000
  54        -0.00175423
  55         0.00000000
  56         0.00000000
  57        -0.00000000
  58         0.00000000
  59        -0.00000000
  60         0.00000000
Sym=    19a  
Ene=     0.0000
Spin= Alpha
Occup=    0.00000
   1         0.00716119
   2         0.04664666
   3         0.00353912
   4        -0.05606283
   5         0.00000000
   6         0.00000000
   7         0.05170383
   8        -0.00000000