   This run of MOLCAS is using the pymolcas driver

                             OPE
                             OPE          NMOL  CASOP  ENMOLC A   SO
                 OPE        NMOLC        AS  OP EN  MO LC     AS  OP
                OPENM       OL CA        SO  PE NM  OL CA     SOP EN
                OP EN      MO   LC       AS  OP ENMOL  CASO   PENMOL
                OP  EN     MO   LC       AS  OP EN     MO     LC ASO
               OP   E  NMOL  C  AS       OP  EN MO     LC     AS  OP
               OP  E   NMO   LC AS        OPEN  MO     LCASOP EN   M
               O  PEN   MO  LCA  SO
            OPE   NMO   L   CAS    OP
        OPENMOL  CASOP     ENMOL   CASOPE
     OPENMOLCA   SOPENMOLCASOPEN   MOLCASOPE
    OPENMOLCAS   OP           EN   MOL    CAS
    OPENMOLCAS       OP  ENM        O     LCA
    OPENMOLCAS    OPEN  MOLCASO     P  E  NMO
    OPENMOLCAS     OP               E  N  MOL
    OPENMOLCA   SO           PENM   O  L  CAS    OPEN    MO    LCAS
    OPENMOLCA   SOP           ENM   O  L  CAS   OP  EN  MOLC  AS   O
    OPENMOLCA   SOPE           NM      O  LCA   S      OP  EN MO
    OPENMOLC                AS         O  PEN   M      OL  CA  SOPE
    OPENMO        LCASOPE  NMOL        C  ASO   P      ENMOLC     AS
    OPE     NMO      LCA  SO     P     E   NM   OL  CA SO  PE N   MO
          OPENMOLCA            SOPE   NMO        LCAS  O    P  ENMO
     OPENMOLCASOPENMOLCASOPENMOLCASOPENMOLCA
        OPENMOLCASOPENMOLCASOPENMOLCASOPE
            OPENMOLCASOPENMOLCASOPENM
               OPENMOLCASOPENMOLCA        version: o822a959167d23c ?
                   OPENMOLCASO
                       OPE                tag:

 OpenMolcas is free software; you can redistribute it and/or modify it
 under the terms of the GNU Lesser General Public License version 2.1.
 OpenMolcas is distributed in the hope that it will be useful, but it
 is provided "as is" and without any express or implied warranties.
 For more details see the full text of the license in the file
 LICENSE or in <http://www.gnu.org/licenses/>.

                 Copyright (C) The OpenMolcas Authors
           For the author list and the recommended citation,
                   consult the file CONTRIBUTORS.md

           *************************************************
           * pymolcas version py2.28                       *
           *   build c4a6d18ded8cb6cad61d2372a9abd97c      *
           *   (after the EMIL interpreter by V. Veryazov) *
           *************************************************

configuration info
------------------
Host name: mgt (Linux)
C Compiler ID: GNU
C flags: -std=gnu99
Fortran Compiler ID: GNU
Fortran flags: -fno-aggressive-loop-optimizations -cpp -fdefault-integer-8 -fmax-stack-var-size=1048576
Definitions: _MOLCAS_;_I8_;_LINUX_
Parallel: OFF (GA=OFF)


   -------------------------------------------------------------------------------------------------------
  |
  |           Project: n2
  |    Submitted from: /public/home/xzzeng/work/HQC/N2/cc-pvtz/NO/PES/entropy/1.0/results/work_dir/n2/dmrg
  |      Scratch area: /public/home/xzzeng/work/HQC/N2/cc-pvtz/NO/PES/entropy/1.0/results/scratch
  |   Save outputs to: /public/home/xzzeng/work/HQC/N2/cc-pvtz/NO/PES/entropy/1.0/results/work_dir/n2/dmrg
  |            Molcas: /public/home/xzzeng/soft/OpenMolcas/build
  |
  | Scratch area is NOT empty
  |
  |    MOLCAS_DRIVER = /public/home/xzzeng/soft/OpenMolcas/build/pymolcas
  |    MOLCAS_NPROCS = 1
  |    MOLCAS_SOURCE = /public/home/xzzeng/soft/OpenMolcas
  | MOLCAS_STRUCTURE = 0
  |
   -------------------------------------------------------------------------------------------------------

++ ---------   Input file   ---------

&DMRGSCF
ActiveSpaceOptimizer = QCMaquis
DMRGSettings
  nsweeps = 5
  max_bond_dimension = 300
EndDMRGSettings
OOptimizationSettings
  SPIN    = 1
  NACTEL  = 10
  FILEORB = /public/home/xzzeng/work/HQC/N2/cc-pvtz/NO/PES/entropy/1.0/results/work_dir/n2/dmrg/n2.scf.h5_sel
  TYPEINDEX
  CIONLY
EndOOptimizationSettings

-- ----------------------------------

*** symbolic link created: INPORB -> n2.ScfOrb
--- Start Module: dmrgscf at Tue Apr  9 00:41:40 2024 ---

()()()()()()()()()()()()()()()()()()()()()()()()()()()()()()()()()()()()()()()()()()()()()()()()()()

                                              &DMRGSCF

                                   only a single process is used
                       available to each process: 12 GB of memory, 1 thread?
                                             pid: 59748
()()()()()()()()()()()()()()()()()()()()()()()()()()()()()()()()()()()()()()()()()()()()()()()()()()


      DMRGSCF: active space solver is set to qcmaquis
      -------                                --------


      Header of the ONEINT file:
      --------------------------
      
      Integrals generated by Gateway/Seward, Tue Apr  9 00:41:38 2024


      OrdInt status: non-squared


      Cartesian coordinates in Angstrom:
      -----------------------------------------------------
      No.  Label        X            Y            Z        
      -----------------------------------------------------
       1   N1         0.00000000   0.00000000   0.00000000
       2   N2         0.00000000   0.00000000   1.00000000
      -----------------------------------------------------
      Nuclear repulsion energy =   25.92968333

++    Wave function specifications:
      -----------------------------

      Number of closed shell electrons           4
      Number of electrons in active shells      10
      Max number of holes in RAS1 space          0
      Max nr of electrons in RAS3 space          0
      Number of inactive orbitals                2
      Number of active orbitals                  8
      Number of secondary orbitals              50
      Spin quantum number                      0.0
      State symmetry                             1
--

++    Orbital specifications:
      -----------------------

      Symmetry species                           1
                                                 a
      Frozen orbitals                            0
      Inactive orbitals                          2
      Active orbitals                            8
      RAS1 orbitals                              0
      RAS2 orbitals                              8
      RAS3 orbitals                              0
      Secondary orbitals                        50
      Deleted orbitals                           0
      Number of basis functions                 60
--

++    DMRG specifications:
      ----------------------------

      Number of renormalized states              300
      (Max) number of sweeps                     5
      Convergence threshold (sweep tolerance)    0.100E-07
      Jacobi-Davidson threshold                  0.100E-10
      SVD truncation threshold (initial)         1e-50
      SVD truncation threshold (final)           0.100E-10
      Number of root(s) required                 1
      Root chosen for geometry opt.              1
      DMRG root used                             1
         
--

++    Optimization specifications:
      ----------------------------

      RASSCF algorithm: LK Cholesky
      Maximum number of macro iterations       200
      Maximum number of SX iterations          100
      Threshold for RASSCF energy            1.000E-08
      Threshold for max MO rotation          1.000E-01
      Threshold for max BLB element          1.000E-04
      Level shift parameter                  5.000E-01
      Make Quasi-Newton update
--

      The MO-coefficients are taken from the file:
      /public/home/xzzeng/work/HQC/N2/cc-pvtz/NO/PES/entropy/1.0/results/work_dir/n2/dmrg/n2.scf.h5_sel                                                                                                                                                               

      Total molecular charge    0.00

      ************************************************************************************************************************
      *                                                                                                                      *
      *                                            Wave function control section                                             *
      *                                                                                                                      *
      ************************************************************************************************************************


                                         DMRGCI only, no orbital optimization will be done.
                                         --------------------------------------------------

                                             Please cite for the QCMaquis-Molcas driver:

                                    Freitag L.; Keller S.; Knecht S.; Lindh R.; Ma Y.; 
                                    Stein C. J. and Reiher M., in preparation. (2018).
                                    ---------------------------------------------------------------

                                             Please cite for the QCMaquis DMRG software:

                                    S. Keller, M. Dolfi, M. Troyer, M. Reiher,
                                    J. Chem. Phys. 143, 244118 (2015)
                                    ---------------------------------------------------------------



      DMRGCI energy              :    -109.0164666377
      Total time spent (hh:mm:ss):            0:00:04


      Natural orbitals and occupation numbers for root  1
      sym 1:   1.999806   1.991351   1.972836   1.972836   1.996041   0.032934   0.032934   0.001262

      ************************************************************************************************************************
      *                                                                                                                      *
      *                                                    Final results                                                     *
      *                                                                                                                      *
      ************************************************************************************************************************


++    Wave function specifications:
      -----------------------------

      Number of closed shell electrons           4
      Number of electrons in active shells      10
      Max number of holes in RAS1 space          0
      Max nr of electrons in RAS3 space          0
      Number of inactive orbitals                2
      Number of active orbitals                  8
      Number of secondary orbitals              50
      Spin quantum number                      0.0
      State symmetry                             1
--

++    Orbital specifications:
      -----------------------

      Symmetry species                           1
                                                 a
      Frozen orbitals                            0
      Inactive orbitals                          2
      Active orbitals                            8
      RAS1 orbitals                              0
      RAS2 orbitals                              8
      RAS3 orbitals                              0
      Secondary orbitals                        50
      Deleted orbitals                           0
      Number of basis functions                 60
--

++    DMRG specifications:
      ----------------------------

      Number of renormalized states              300
      (Max) number of sweeps                     5
      Convergence threshold (sweep tolerance)    0.100E-07
      Jacobi-Davidson threshold                  0.100E-10
      SVD truncation threshold (initial)         1e-50
      SVD truncation threshold (final)           0.100E-10
      Number of root(s) required                 1
      DMRG root used                             1
      highest root included in the DMRG          1
      Root passed to geometry opt.               1
--

++    Final optimization conditions:
      ------------------------------

      Average CI energy                            -109.01646664
--


      Final state energy(ies):
      ------------------------

::    RASSCF root number  1 Total energy:   -109.01646664

++    Molecular orbitals:
      -------------------

      Pseudonatural active orbitals and approximate occupation numbers




      Molecular orbitals for symmetry species 1: a  


      Orbital                 1         2         3         4         5         6         7         8         9        10
      Energy             0.0000    0.0000    0.0000    0.0000    0.0000    0.0000    0.0000    0.0000    0.0000    0.0000
      Occ. No.           0.0000    0.0000    0.0000    0.0000    0.0000    0.0000    0.0000    0.0000    0.0000    0.0000

     1 N1     1s         0.7049   -0.7085   -0.0360   -0.0027   -0.0000   -0.0000    0.0071   -0.0000    0.0000   -0.0638
     2 N1     2s         0.0013   -0.0003    0.6011   -0.6311    0.0000   -0.0000    0.2397   -0.0000    0.0000   -0.5103
     3 N1     *s         0.0014   -0.0010   -0.0028    0.0018    0.0000    0.0000   -0.0029    0.0000   -0.0000    0.0029
     4 N1     *s        -0.0011   -0.0066   -0.1546   -0.0609    0.0000   -0.0000    0.1925    0.0000   -0.0000   -8.2820
     5 N1     2px       -0.0000    0.0000    0.0000    0.0000    0.6449   -0.0000   -0.0000   -0.0000   -0.5924   -0.0000
     6 N1     *px        0.0000   -0.0000   -0.0000   -0.0000   -0.0172    0.0000   -0.0000   -0.0000   -0.0050   -0.0000
     7 N1     *px        0.0000   -0.0000   -0.0000   -0.0000   -0.0587    0.0000   -0.0000   -0.0000   -0.6635    0.0000
     8 N1     2py        0.0000   -0.0000   -0.0000   -0.0000    0.0000    0.6449   -0.0000   -0.5924    0.0000    0.0000
     9 N1     *py       -0.0000    0.0000   -0.0000    0.0000   -0.0000   -0.0172    0.0000   -0.0050    0.0000    0.0000
    10 N1     *py       -0.0000    0.0000   -0.0000    0.0000   -0.0000   -0.0587    0.0000   -0.6635    0.0000   -0.0000
    11 N1     2pz        0.0058   -0.0041    0.4002    0.3432   -0.0000    0.0000   -0.7160   -0.0000    0.0000    0.0977
    12 N1     *pz       -0.0033    0.0014   -0.0650   -0.0071   -0.0000    0.0000    0.0673    0.0000   -0.0000   -0.3146
    13 N1     *pz       -0.0020   -0.0012   -0.1220   -0.0272   -0.0000   -0.0000    0.0995   -0.0000   -0.0000   -4.1392
    14 N1     *d2-      -0.0000    0.0000    0.0000   -0.0000    0.0000   -0.0000    0.0000   -0.0000   -0.0000   -0.0000
    15 N1     *d2-       0.0000   -0.0000    0.0000    0.0000   -0.0000    0.0000   -0.0000   -0.0000    0.0000    0.0000
    16 N1     *d1-      -0.0000    0.0000    0.0000   -0.0000    0.0000    0.0241   -0.0000    0.0159   -0.0000   -0.0000
    17 N1     *d1-      -0.0000    0.0000    0.0000   -0.0000    0.0000    0.0375   -0.0000   -0.0306    0.0000    0.0000
    18 N1     *d0        0.0007   -0.0010    0.0233    0.0037    0.0000   -0.0000   -0.0198   -0.0000    0.0000    0.0205
    19 N1     *d0       -0.0006   -0.0006    0.0177    0.0091   -0.0000    0.0000   -0.0128   -0.0000    0.0000   -0.2777
    20 N1     *d1+       0.0000   -0.0000    0.0000    0.0000    0.0241   -0.0000    0.0000    0.0000    0.0159   -0.0000
    21 N1     *d1+       0.0000    0.0000    0.0000    0.0000    0.0375   -0.0000    0.0000   -0.0000   -0.0306   -0.0000
    22 N1     *d2+       0.0000   -0.0000    0.0000   -0.0000   -0.0000   -0.0000   -0.0000    0.0000   -0.0000    0.0000
    23 N1     *d2+      -0.0000   -0.0000   -0.0000    0.0000    0.0000    0.0000    0.0000   -0.0000   -0.0000   -0.0000
    24 N1     *f3-      -0.0000    0.0000    0.0000   -0.0000   -0.0000   -0.0000    0.0000    0.0000    0.0000    0.0000
    25 N1     *f2-       0.0000   -0.0000    0.0000    0.0000    0.0000   -0.0000    0.0000    0.0000   -0.0000   -0.0000
    26 N1     *f1-      -0.0000    0.0000    0.0000   -0.0000    0.0000    0.0088   -0.0000   -0.0039    0.0000    0.0000
    27 N1     *f0       -0.0001   -0.0005    0.0077    0.0001    0.0000   -0.0000   -0.0047   -0.0000    0.0000   -0.0145
    28 N1     *f1+       0.0000   -0.0000   -0.0000    0.0000    0.0088   -0.0000    0.0000   -0.0000   -0.0039    0.0000
    29 N1     *f2+      -0.0000   -0.0000   -0.0000    0.0000   -0.0000   -0.0000    0.0000    0.0000    0.0000    0.0000
    30 N1     *f3+      -0.0000    0.0000   -0.0000    0.0000    0.0000   -0.0000    0.0000    0.0000    0.0000    0.0000
    31 N2     1s         0.7081    0.7054   -0.0360    0.0027    0.0000    0.0000    0.0071   -0.0000    0.0000    0.0637
    32 N2     2s         0.0015    0.0004    0.6012    0.6311   -0.0000    0.0000    0.2397   -0.0000    0.0000    0.5101
    33 N2     *s         0.0013    0.0010   -0.0028   -0.0018   -0.0000   -0.0000   -0.0029    0.0000   -0.0000   -0.0029
    34 N2     *s        -0.0010    0.0066   -0.1546    0.0609   -0.0000    0.0000    0.1924    0.0000    0.0000    8.2821
    35 N2     2px       -0.0000   -0.0000   -0.0000    0.0000    0.6449   -0.0000    0.0000    0.0000    0.5924    0.0000
    36 N2     *px       -0.0000   -0.0000   -0.0000   -0.0000   -0.0172    0.0000   -0.0000    0.0000    0.0050    0.0000
    37 N2     *px        0.0000   -0.0000    0.0000   -0.0000   -0.0587    0.0000   -0.0000    0.0000    0.6635   -0.0000
    38 N2     2py        0.0000    0.0000    0.0000   -0.0000    0.0000    0.6449   -0.0000    0.5924   -0.0000   -0.0000
    39 N2     *py       -0.0000   -0.0000    0.0000    0.0000   -0.0000   -0.0172    0.0000    0.0050   -0.0000   -0.0000
    40 N2     *py       -0.0000   -0.0000   -0.0000    0.0000   -0.0000   -0.0587    0.0000    0.6635   -0.0000    0.0000
    41 N2     2pz       -0.0058   -0.0041   -0.4002    0.3433   -0.0000    0.0000    0.7160    0.0000   -0.0000    0.0978
    42 N2     *pz        0.0032    0.0014    0.0650   -0.0071    0.0000   -0.0000   -0.0673   -0.0000   -0.0000   -0.3145
    43 N2     *pz        0.0020   -0.0012    0.1219   -0.0272    0.0000   -0.0000   -0.0994    0.0000   -0.0000   -4.1398
    44 N2     *d2-      -0.0000    0.0000   -0.0000   -0.0000    0.0000   -0.0000    0.0000    0.0000   -0.0000    0.0000
    45 N2     *d2-      -0.0000    0.0000   -0.0000   -0.0000    0.0000   -0.0000   -0.0000    0.0000   -0.0000    0.0000
    46 N2     *d1-      -0.0000   -0.0000   -0.0000    0.0000   -0.0000   -0.0241    0.0000    0.0159   -0.0000   -0.0000
    47 N2     *d1-      -0.0000    0.0000   -0.0000    0.0000   -0.0000   -0.0375    0.0000   -0.0306    0.0000    0.0000
    48 N2     *d0        0.0007    0.0010    0.0233   -0.0037    0.0000   -0.0000   -0.0198   -0.0000    0.0000   -0.0205
    49 N2     *d0       -0.0006    0.0006    0.0178   -0.0091    0.0000   -0.0000   -0.0128   -0.0000    0.0000    0.2778
    50 N2     *d1+       0.0000    0.0000    0.0000   -0.0000   -0.0241    0.0000   -0.0000    0.0000    0.0159    0.0000
    51 N2     *d1+       0.0000    0.0000    0.0000   -0.0000   -0.0375    0.0000   -0.0000   -0.0000   -0.0306    0.0000
    52 N2     *d2+       0.0000   -0.0000   -0.0000   -0.0000   -0.0000   -0.0000    0.0000    0.0000    0.0000   -0.0000
    53 N2     *d2+       0.0000    0.0000    0.0000   -0.0000   -0.0000   -0.0000    0.0000    0.0000    0.0000   -0.0000
    54 N2     *f3-      -0.0000   -0.0000    0.0000    0.0000    0.0000    0.0000   -0.0000    0.0000   -0.0000    0.0000
    55 N2     *f2-       0.0000   -0.0000   -0.0000    0.0000   -0.0000   -0.0000    0.0000   -0.0000    0.0000   -0.0000
    56 N2     *f1-       0.0000    0.0000   -0.0000   -0.0000    0.0000    0.0088    0.0000    0.0039   -0.0000    0.0000
    57 N2     *f0        0.0001   -0.0005   -0.0077    0.0001   -0.0000    0.0000    0.0047    0.0000   -0.0000   -0.0145
    58 N2     *f1+      -0.0000   -0.0000    0.0000    0.0000    0.0088   -0.0000   -0.0000    0.0000    0.0039   -0.0000
    59 N2     *f2+      -0.0000   -0.0000   -0.0000    0.0000   -0.0000    0.0000    0.0000   -0.0000   -0.0000   -0.0000
    60 N2     *f3+      -0.0000   -0.0000    0.0000    0.0000    0.0000    0.0000   -0.0000   -0.0000   -0.0000    0.0000


      Orbital                11        12        13        14        15        16        17        18        19        20
      Energy             0.0000    0.0000    0.0000    0.0000    0.0000    0.0000    0.0000    0.0000    0.0000    0.0000
      Occ. No.           0.0000    0.0000    0.0000    0.0000    0.0000    0.0000    0.0000    0.0000    0.0000    0.0000

     1 N1     1s         0.0000   -0.0000    0.0792    0.3205   -0.0000    0.0000    0.0079    0.0000    0.0000   -0.0692
     2 N1     2s         0.0000   -0.0000    0.2367    1.5526   -0.0000    0.0000    0.2628    0.0000   -0.0000    0.2506
     3 N1     *s         0.0000   -0.0000    0.0543   -0.0954    0.0000   -0.0000   -0.0062    0.0000    0.0000   -0.0066
     4 N1     *s         0.0000    0.0000    0.1396   -1.5077    0.0000   -0.0000  -11.5496   -0.0002    0.0000   -9.1658
     5 N1     2px       -0.0000   -0.3605   -0.0000   -0.0000    0.0000    0.6171   -0.0000   -0.0000   -0.0000   -0.0000
     6 N1     *px       -0.0000   -0.3138   -0.0000   -0.0000    0.0000    0.1513   -0.0000    0.0000   -0.0000    0.0000
     7 N1     *px        0.0000    0.8172    0.0000    0.0000   -0.0000   -1.8525    0.0000   -0.0000    0.0000    0.0000
     8 N1     2py       -0.3605    0.0000    0.0000    0.0000    0.6171   -0.0000    0.0000    0.0000   -0.0000    0.0000
     9 N1     *py       -0.3138    0.0000    0.0000    0.0000    0.1513   -0.0000    0.0000    0.0000    0.0000   -0.0000
    10 N1     *py        0.8172   -0.0000   -0.0000   -0.0000   -1.8525    0.0000   -0.0000   -0.0000   -0.0000   -0.0000
    11 N1     2pz        0.0000   -0.0000    0.3452   -0.1544    0.0000   -0.0000   -0.2735   -0.0000   -0.0000    0.6511
    12 N1     *pz        0.0000   -0.0000    0.1899   -0.1032    0.0000   -0.0000   -1.4872   -0.0000    0.0000   -0.9255
    13 N1     *pz       -0.0000    0.0000   -1.4615    0.0173    0.0000   -0.0000   -3.8914   -0.0001    0.0000   -3.8101
    14 N1     *d2-      -0.0000    0.0000   -0.0000   -0.0000    0.0000   -0.0000   -0.0000   -0.0000   -0.0052    0.0000
    15 N1     *d2-       0.0000   -0.0000   -0.0000   -0.0000    0.0000    0.0000    0.0000    0.0000    0.5926    0.0000
    16 N1     *d1-      -0.0186    0.0000    0.0000    0.0000    0.0065   -0.0000    0.0000    0.0000    0.0000   -0.0000
    17 N1     *d1-      -0.0600    0.0000    0.0000   -0.0000   -0.3738    0.0000   -0.0000    0.0000    0.0000   -0.0000
    18 N1     *d0        0.0000   -0.0000    0.0454    0.0063    0.0000   -0.0000   -0.0471   -0.0000    0.0000   -0.0597
    19 N1     *d0       -0.0000    0.0000   -0.1692    0.1305    0.0000   -0.0000   -0.4515   -0.0000    0.0000   -0.9422
    20 N1     *d1+      -0.0000   -0.0186   -0.0000   -0.0000    0.0000    0.0065   -0.0000    0.0000   -0.0000    0.0000
    21 N1     *d1+      -0.0000   -0.0599   -0.0000    0.0000   -0.0000   -0.3738    0.0000    0.0000   -0.0000    0.0000
    22 N1     *d2+      -0.0000   -0.0000    0.0000    0.0000    0.0000    0.0000    0.0000   -0.0052    0.0000   -0.0000
    23 N1     *d2+       0.0000    0.0000   -0.0000   -0.0000   -0.0000    0.0000   -0.0000    0.5926   -0.0000    0.0000
    24 N1     *f3-       0.0000   -0.0000   -0.0000   -0.0000    0.0000   -0.0000    0.0000   -0.0000    0.0000    0.0000
    25 N1     *f2-      -0.0000    0.0000   -0.0000   -0.0000   -0.0000    0.0000    0.0000    0.0000    0.0026    0.0000
    26 N1     *f1-       0.0031   -0.0000    0.0000   -0.0000   -0.0534    0.0000   -0.0000   -0.0000   -0.0000   -0.0000
    27 N1     *f0       -0.0000    0.0000   -0.0305   -0.0074    0.0000   -0.0000   -0.0697   -0.0000    0.0000   -0.0572
    28 N1     *f1+       0.0000    0.0031    0.0000    0.0000   -0.0000   -0.0534    0.0000   -0.0000    0.0000    0.0000
    29 N1     *f2+      -0.0000   -0.0000   -0.0000   -0.0000   -0.0000   -0.0000   -0.0000    0.0026   -0.0000    0.0000
    30 N1     *f3+      -0.0000   -0.0000   -0.0000    0.0000   -0.0000   -0.0000   -0.0000    0.0000    0.0000   -0.0000
    31 N2     1s         0.0000   -0.0000    0.0792    0.3204   -0.0000    0.0000   -0.0079    0.0000   -0.0000    0.0692
    32 N2     2s         0.0000   -0.0000    0.2368    1.5522   -0.0000    0.0000   -0.2628    0.0000    0.0000   -0.2508
    33 N2     *s         0.0000   -0.0000    0.0544   -0.0953    0.0000   -0.0000    0.0062    0.0000    0.0000    0.0067
    34 N2     *s        -0.0000   -0.0000    0.1407   -1.5079   -0.0000    0.0000   11.5496    0.0002   -0.0000    9.1659
    35 N2     2px       -0.0000   -0.3606   -0.0000   -0.0000   -0.0000   -0.6171    0.0000   -0.0000    0.0000    0.0000
    36 N2     *px       -0.0000   -0.3138   -0.0000   -0.0000   -0.0000   -0.1513    0.0000    0.0000   -0.0000   -0.0000
    37 N2     *px        0.0000    0.8172    0.0000    0.0000    0.0000    1.8525   -0.0000   -0.0000    0.0000   -0.0000
    38 N2     2py       -0.3606    0.0000    0.0000   -0.0000   -0.6171    0.0000   -0.0000   -0.0000   -0.0000   -0.0000
    39 N2     *py       -0.3138    0.0000    0.0000    0.0000   -0.1513    0.0000   -0.0000    0.0000    0.0000    0.0000
    40 N2     *py        0.8172   -0.0000   -0.0000    0.0000    1.8525   -0.0000    0.0000   -0.0000   -0.0000    0.0000
    41 N2     2pz       -0.0000    0.0000   -0.3451    0.1544   -0.0000    0.0000   -0.2735   -0.0000   -0.0000    0.6510
    42 N2     *pz       -0.0000    0.0000   -0.1897    0.1035    0.0000   -0.0000   -1.4872   -0.0000    0.0000   -0.9255
    43 N2     *pz        0.0000   -0.0000    1.4607   -0.0172    0.0000   -0.0000   -3.8913   -0.0001    0.0000   -3.8101
    44 N2     *d2-      -0.0000    0.0000    0.0000    0.0000   -0.0000    0.0000   -0.0000   -0.0000   -0.0052    0.0000
    45 N2     *d2-       0.0000   -0.0000   -0.0000   -0.0000    0.0000    0.0000    0.0000    0.0000    0.5926    0.0000
    46 N2     *d1-       0.0186   -0.0000   -0.0000   -0.0000    0.0065   -0.0000    0.0000    0.0000    0.0000   -0.0000
    47 N2     *d1-       0.0599   -0.0000   -0.0000   -0.0000   -0.3738    0.0000   -0.0000   -0.0000   -0.0000   -0.0000
    48 N2     *d0        0.0000   -0.0000    0.0453    0.0062   -0.0000    0.0000    0.0471    0.0000   -0.0000    0.0597
    49 N2     *d0       -0.0000    0.0000   -0.1693    0.1304   -0.0000    0.0000    0.4515    0.0000   -0.0000    0.9424
    50 N2     *d1+       0.0000    0.0186    0.0000    0.0000    0.0000    0.0065   -0.0000    0.0000   -0.0000    0.0000
    51 N2     *d1+       0.0000    0.0599    0.0000    0.0000   -0.0000   -0.3738    0.0000   -0.0000    0.0000    0.0000
    52 N2     *d2+      -0.0000   -0.0000   -0.0000   -0.0000   -0.0000   -0.0000   -0.0000   -0.0052    0.0000   -0.0000
    53 N2     *d2+       0.0000    0.0000    0.0000   -0.0000   -0.0000    0.0000   -0.0000    0.5926   -0.0000   -0.0000
    54 N2     *f3-       0.0000   -0.0000   -0.0000    0.0000   -0.0000    0.0000   -0.0000   -0.0000    0.0000   -0.0000
    55 N2     *f2-       0.0000   -0.0000    0.0000   -0.0000    0.0000    0.0000    0.0000   -0.0000   -0.0026   -0.0000
    56 N2     *f1-       0.0031   -0.0000   -0.0000    0.0000    0.0534   -0.0000    0.0000   -0.0000   -0.0000    0.0000
    57 N2     *f0        0.0000   -0.0000    0.0305    0.0074    0.0000   -0.0000   -0.0697   -0.0000    0.0000   -0.0572
    58 N2     *f1+       0.0000    0.0031    0.0000   -0.0000    0.0000    0.0534   -0.0000   -0.0000    0.0000   -0.0000
    59 N2     *f2+       0.0000    0.0000   -0.0000   -0.0000   -0.0000    0.0000   -0.0000   -0.0026    0.0000   -0.0000
    60 N2     *f3+      -0.0000   -0.0000    0.0000    0.0000    0.0000    0.0000    0.0000    0.0000    0.0000    0.0000


      Orbital                21        22        23        24        25        26        27        28        29        30
      Energy             0.0000    0.0000    0.0000    0.0000    0.0000    0.0000    0.0000    0.0000    0.0000    0.0000
      Occ. No.           0.0000    0.0000    0.0000    0.0000    0.0000    0.0000    0.0000    0.0000    0.0000    0.0000

     1 N1     1s        -0.0000   -0.0000    0.0000    0.0000   -0.5319   -0.0000   -0.0000   -0.3233    0.0000   -0.0000
     2 N1     2s        -0.0000    0.0000    0.0000    0.0000   -1.9627   -0.0000   -0.0000   -1.6278    0.0000   -0.0000
     3 N1     *s         0.0000    0.0000   -0.0000    0.0000   -0.1943    0.0000   -0.0000   -0.1946   -0.0000    0.0000
     4 N1     *s        -0.0000   -0.0000   -0.0000   -0.0000    1.3907    0.0000   -0.0000   -5.0632    0.0000   -0.0000
     5 N1     2px        0.1528   -0.0000    0.0000   -0.0000   -0.0000    0.4512   -0.0000   -0.0000   -2.2903   -0.0000
     6 N1     *px        0.3150   -0.0000   -0.0000    0.0000   -0.0000    1.0044   -0.0000    0.0000    2.0928    0.0000
     7 N1     *px       -0.1884    0.0000   -0.0000   -0.0000   -0.0000    1.0467   -0.0000    0.0000    0.4092    0.0000
     8 N1     2py        0.0000    0.1528    0.0000    0.0000   -0.0000    0.0000    0.4512    0.0000    0.0000   -2.2903
     9 N1     *py        0.0000    0.3151   -0.0000   -0.0000   -0.0000    0.0000    1.0044   -0.0000   -0.0000    2.0928
    10 N1     *py       -0.0000   -0.1884    0.0000   -0.0000   -0.0000    0.0000    1.0467   -0.0000   -0.0000    0.4092
    11 N1     2pz        0.0000    0.0000    0.0000   -0.0000    0.4160   -0.0000    0.0000   -1.4045    0.0000    0.0000
    12 N1     *pz       -0.0000    0.0000    0.0000   -0.0000   -0.5288    0.0000   -0.0000   -0.3744    0.0000   -0.0000
    13 N1     *pz       -0.0000   -0.0000   -0.0000   -0.0000    1.1420    0.0000   -0.0000   -1.8194    0.0000   -0.0000
    14 N1     *d2-      -0.0000    0.0000    0.0000    0.0238   -0.0000   -0.0000    0.0000   -0.0000    0.0000   -0.0000
    15 N1     *d2-       0.0000    0.0000   -0.0000   -0.9629   -0.0000   -0.0000   -0.0000    0.0000   -0.0000   -0.0000
    16 N1     *d1-       0.0000    0.0002   -0.0000   -0.0000   -0.0000   -0.0000   -0.0072    0.0000    0.0000   -0.0746
    17 N1     *d1-      -0.0000   -0.6835    0.0000   -0.0000   -0.0000    0.0000    2.0580   -0.0000    0.0000   -0.0196
    18 N1     *d0       -0.0000    0.0000   -0.0000    0.0000   -0.0166    0.0000   -0.0000    0.1567   -0.0000    0.0000
    19 N1     *d0       -0.0000   -0.0000    0.0000   -0.0000    1.3527    0.0000    0.0000   -1.1284    0.0000   -0.0000
    20 N1     *d1+       0.0002   -0.0000   -0.0000    0.0000    0.0000   -0.0072    0.0000   -0.0000   -0.0746   -0.0000
    21 N1     *d1+      -0.6835    0.0000   -0.0000   -0.0000   -0.0000    2.0580   -0.0000    0.0000   -0.0196   -0.0000
    22 N1     *d2+       0.0000    0.0000    0.0238   -0.0000   -0.0000    0.0000    0.0000   -0.0000   -0.0000   -0.0000
    23 N1     *d2+       0.0000   -0.0000   -0.9629    0.0000   -0.0000   -0.0000    0.0000   -0.0000   -0.0000    0.0000
    24 N1     *f3-       0.0000    0.0000    0.0000   -0.0000   -0.0000    0.0000   -0.0000    0.0000    0.0000   -0.0000
    25 N1     *f2-       0.0000   -0.0000   -0.0000   -0.0180   -0.0000   -0.0000    0.0000   -0.0000    0.0000   -0.0000
    26 N1     *f1-       0.0000    0.0040    0.0000    0.0000   -0.0000    0.0000    0.1771    0.0000    0.0000   -0.1451
    27 N1     *f0        0.0000   -0.0000    0.0000   -0.0000    0.1210    0.0000    0.0000    0.0890   -0.0000    0.0000
    28 N1     *f1+       0.0039   -0.0000    0.0000   -0.0000    0.0000    0.1771   -0.0000   -0.0000   -0.1451   -0.0000
    29 N1     *f2+      -0.0000   -0.0000   -0.0180    0.0000   -0.0000    0.0000    0.0000    0.0000   -0.0000   -0.0000
    30 N1     *f3+      -0.0000    0.0000   -0.0000   -0.0000    0.0000    0.0000   -0.0000   -0.0000    0.0000    0.0000
    31 N2     1s        -0.0000    0.0000   -0.0000    0.0000   -0.5317   -0.0000   -0.0000    0.3233    0.0000   -0.0000
    32 N2     2s        -0.0000    0.0000   -0.0000    0.0000   -1.9618   -0.0000   -0.0000    1.6277    0.0000    0.0000
    33 N2     *s         0.0000   -0.0000   -0.0000    0.0000   -0.1944   -0.0000   -0.0000    0.1947   -0.0000    0.0000
    34 N2     *s         0.0000    0.0000    0.0000    0.0000    1.3900   -0.0000    0.0000    5.0632   -0.0000    0.0000
    35 N2     2px        0.1527   -0.0000   -0.0000    0.0000    0.0000   -0.4512    0.0000    0.0000   -2.2904   -0.0000
    36 N2     *px        0.3150   -0.0000    0.0000   -0.0000    0.0000   -1.0044    0.0000   -0.0000    2.0928    0.0000
    37 N2     *px       -0.1884    0.0000   -0.0000    0.0000    0.0000   -1.0467    0.0000   -0.0000    0.4092    0.0000
    38 N2     2py        0.0000    0.1527   -0.0000   -0.0000    0.0000   -0.0000   -0.4512   -0.0000    0.0000   -2.2904
    39 N2     *py        0.0000    0.3150    0.0000    0.0000    0.0000   -0.0000   -1.0044    0.0000   -0.0000    2.0928
    40 N2     *py       -0.0000   -0.1884   -0.0000   -0.0000    0.0000   -0.0000   -1.0467    0.0000   -0.0000    0.4092
    41 N2     2pz       -0.0000    0.0000    0.0000    0.0000   -0.4161   -0.0000   -0.0000   -1.4044    0.0000   -0.0000
    42 N2     *pz       -0.0000   -0.0000    0.0000   -0.0000    0.5284    0.0000   -0.0000   -0.3745   -0.0000   -0.0000
    43 N2     *pz       -0.0000   -0.0000   -0.0000   -0.0000   -1.1419    0.0000   -0.0000   -1.8194    0.0000   -0.0000
    44 N2     *d2-      -0.0000    0.0000   -0.0000   -0.0238    0.0000    0.0000   -0.0000   -0.0000    0.0000   -0.0000
    45 N2     *d2-      -0.0000    0.0000    0.0000    0.9629    0.0000    0.0000    0.0000    0.0000    0.0000   -0.0000
    46 N2     *d1-      -0.0000   -0.0002    0.0000    0.0000    0.0000   -0.0000   -0.0072    0.0000   -0.0000    0.0746
    47 N2     *d1-       0.0000    0.6836   -0.0000   -0.0000   -0.0000    0.0000    2.0580   -0.0000   -0.0000    0.0196
    48 N2     *d0       -0.0000    0.0000   -0.0000    0.0000   -0.0166   -0.0000   -0.0000   -0.1568    0.0000    0.0000
    49 N2     *d0       -0.0000    0.0000   -0.0000   -0.0000    1.3528    0.0000    0.0000    1.1284    0.0000    0.0000
    50 N2     *d1+      -0.0002    0.0000    0.0000   -0.0000   -0.0000   -0.0072    0.0000   -0.0000    0.0746    0.0000
    51 N2     *d1+       0.6836   -0.0000   -0.0000    0.0000   -0.0000    2.0580   -0.0000    0.0000    0.0196    0.0000
    52 N2     *d2+       0.0000    0.0000   -0.0238    0.0000    0.0000   -0.0000   -0.0000    0.0000   -0.0000   -0.0000
    53 N2     *d2+       0.0000    0.0000    0.9629   -0.0000    0.0000    0.0000   -0.0000    0.0000   -0.0000   -0.0000
    54 N2     *f3-       0.0000    0.0000   -0.0000    0.0000    0.0000   -0.0000   -0.0000   -0.0000    0.0000   -0.0000
    55 N2     *f2-      -0.0000    0.0000   -0.0000   -0.0180   -0.0000   -0.0000    0.0000    0.0000   -0.0000    0.0000
    56 N2     *f1-       0.0000    0.0039   -0.0000   -0.0000    0.0000   -0.0000   -0.1771   -0.0000    0.0000   -0.1451
    57 N2     *f0       -0.0000    0.0000    0.0000    0.0000   -0.1210   -0.0000   -0.0000    0.0890    0.0000   -0.0000
    58 N2     *f1+       0.0039   -0.0000   -0.0000    0.0000    0.0000   -0.1771    0.0000   -0.0000   -0.1451   -0.0000
    59 N2     *f2+       0.0000    0.0000   -0.0180    0.0000   -0.0000    0.0000    0.0000    0.0000    0.0000    0.0000
    60 N2     *f3+      -0.0000    0.0000    0.0000    0.0000    0.0000    0.0000   -0.0000    0.0000    0.0000    0.0000


      Orbital                31        32        33        34        35        36        37        38        39        40
      Energy             0.0000    0.0000    0.0000    0.0000    0.0000    0.0000    0.0000    0.0000    0.0000    0.0000
      Occ. No.           0.0000    0.0000    0.0000    0.0000    0.0000    0.0000    0.0000    0.0000    0.0000    0.0000

     1 N1     1s        -0.0569   -0.0000    0.0000   -0.3785    0.0000   -0.0000   -0.0000    0.0000    0.0000   -0.0000
     2 N1     2s        -0.4054   -0.0000    0.0000   -2.3221    0.0000   -0.0000   -0.0000    0.0000    0.0000   -0.0000
     3 N1     *s        -0.2105   -0.0000    0.0000   -0.7790    0.0000   -0.0000    0.0000   -0.0000    0.0000    0.0000
     4 N1     *s         0.3486   -0.0000    0.0000   -7.6528    0.0000   -0.0000    0.0000    0.0000    0.0000    0.0000
     5 N1     2px        0.0000   -2.4525    0.0000    0.0000    0.0000   -0.0000   -0.0000   -0.0000   -0.7378   -0.0000
     6 N1     *px       -0.0000    2.8887   -0.0000   -0.0000   -0.0000    0.0000    0.0000    0.0000    0.5676    0.0000
     7 N1     *px       -0.0000    0.5622   -0.0000   -0.0000   -0.0000    0.0000    0.0000    0.0000    0.2218    0.0000
     8 N1     2py        0.0000   -0.0000   -2.4525   -0.0000    0.0000    0.0000    0.0000    0.0000    0.0000   -0.7378
     9 N1     *py       -0.0000    0.0000    2.8887    0.0000   -0.0000   -0.0000   -0.0000   -0.0000   -0.0000    0.5677
    10 N1     *py       -0.0000    0.0000    0.5622    0.0000   -0.0000   -0.0000   -0.0000   -0.0000   -0.0000    0.2219
    11 N1     2pz       -1.4706    0.0000   -0.0000    1.7650   -0.0000   -0.0000    0.0000   -0.0000   -0.0000   -0.0000
    12 N1     *pz        1.3769   -0.0000    0.0000   -4.5413    0.0000   -0.0000   -0.0000    0.0000    0.0000    0.0000
    13 N1     *pz        0.4569   -0.0000    0.0000   -3.4067    0.0000   -0.0000   -0.0000    0.0000    0.0000    0.0000
    14 N1     *d2-       0.0000    0.0000   -0.0000    0.0000    0.0000   -0.2420   -0.0000   -0.0000    0.0000   -0.0000
    15 N1     *d2-       0.0000    0.0000   -0.0000    0.0000   -0.0000    0.2194    0.0000    0.0000   -0.0000    0.0000
    16 N1     *d1-       0.0000    0.0000    0.0123    0.0000   -0.0000   -0.0000   -0.0000   -0.0000   -0.0000    0.5921
    17 N1     *d1-      -0.0000    0.0000    0.7279    0.0000    0.0000    0.0000    0.0000    0.0000    0.0000   -0.3697
    18 N1     *d0       -0.0996   -0.0000    0.0000   -0.1019    0.0000   -0.0000    0.0000   -0.0000    0.0000   -0.0000
    19 N1     *d0        0.4981   -0.0000    0.0000   -1.2965    0.0000   -0.0000   -0.0000    0.0000   -0.0000    0.0000
    20 N1     *d1+       0.0000    0.0123   -0.0000    0.0000   -0.0000    0.0000    0.0000   -0.0000    0.5921    0.0000
    21 N1     *d1+      -0.0000    0.7280   -0.0000   -0.0000    0.0000   -0.0000   -0.0000    0.0000   -0.3697   -0.0000
    22 N1     *d2+       0.0000   -0.0000   -0.0000   -0.0000   -0.2419   -0.0000   -0.0000    0.0000   -0.0000   -0.0000
    23 N1     *d2+      -0.0000   -0.0000   -0.0000   -0.0000    0.2194    0.0000    0.0000   -0.0000    0.0000    0.0000
    24 N1     *f3-       0.0000    0.0000    0.0000    0.0000    0.0000   -0.0000    0.0000    0.6617   -0.0000    0.0000
    25 N1     *f2-       0.0000   -0.0000    0.0000    0.0000    0.0000   -0.5640   -0.0000   -0.0000    0.0000   -0.0000
    26 N1     *f1-      -0.0000   -0.0000   -0.0676   -0.0000   -0.0000   -0.0000   -0.0000   -0.0000   -0.0000    0.2722
    27 N1     *f0       -0.3527   -0.0000    0.0000   -0.1304   -0.0000   -0.0000   -0.0000    0.0000   -0.0000    0.0000
    28 N1     *f1+       0.0000   -0.0676    0.0000    0.0000   -0.0000    0.0000    0.0000   -0.0000    0.2721    0.0000
    29 N1     *f2+      -0.0000    0.0000    0.0000   -0.0000   -0.5640   -0.0000   -0.0000    0.0000   -0.0000   -0.0000
    30 N1     *f3+       0.0000   -0.0000    0.0000   -0.0000   -0.0000   -0.0000    0.6617   -0.0000   -0.0000   -0.0000
    31 N2     1s        -0.0570    0.0000   -0.0000    0.3784   -0.0000    0.0000    0.0000    0.0000    0.0000   -0.0000
    32 N2     2s        -0.4055    0.0000   -0.0000    2.3219   -0.0000    0.0000    0.0000   -0.0000    0.0000   -0.0000
    33 N2     *s        -0.2106    0.0000   -0.0000    0.7791   -0.0000    0.0000   -0.0000   -0.0000   -0.0000    0.0000
    34 N2     *s         0.3484    0.0000   -0.0000    7.6530   -0.0000    0.0000   -0.0000   -0.0000   -0.0000    0.0000
    35 N2     2px        0.0000    2.4525   -0.0000   -0.0000    0.0000   -0.0000    0.0000   -0.0000   -0.7378   -0.0000
    36 N2     *px       -0.0000   -2.8887    0.0000    0.0000   -0.0000    0.0000   -0.0000    0.0000    0.5677    0.0000
    37 N2     *px       -0.0000   -0.5622    0.0000    0.0000   -0.0000    0.0000    0.0000   -0.0000    0.2219    0.0000
    38 N2     2py       -0.0000    0.0000    2.4524    0.0000    0.0000    0.0000   -0.0000   -0.0000    0.0000   -0.7378
    39 N2     *py        0.0000   -0.0000   -2.8887   -0.0000   -0.0000   -0.0000    0.0000    0.0000   -0.0000    0.5677
    40 N2     *py        0.0000   -0.0000   -0.5622   -0.0000   -0.0000   -0.0000   -0.0000   -0.0000   -0.0000    0.2219
    41 N2     2pz        1.4706    0.0000   -0.0000    1.7651   -0.0000    0.0000   -0.0000    0.0000   -0.0000    0.0000
    42 N2     *pz       -1.3768   -0.0000    0.0000   -4.5414    0.0000   -0.0000   -0.0000   -0.0000    0.0000   -0.0000
    43 N2     *pz       -0.4568   -0.0000    0.0000   -3.4067    0.0000   -0.0000    0.0000    0.0000    0.0000   -0.0000
    44 N2     *d2-       0.0000   -0.0000    0.0000    0.0000    0.0000   -0.2420   -0.0000   -0.0000    0.0000   -0.0000
    45 N2     *d2-      -0.0000   -0.0000    0.0000   -0.0000   -0.0000    0.2194    0.0000    0.0000   -0.0000    0.0000
    46 N2     *d1-       0.0000    0.0000    0.0122   -0.0000    0.0000    0.0000    0.0000    0.0000    0.0000   -0.5921
    47 N2     *d1-      -0.0000    0.0000    0.7280    0.0000   -0.0000   -0.0000   -0.0000   -0.0000   -0.0000    0.3697
    48 N2     *d0       -0.0996    0.0000   -0.0000    0.1019   -0.0000   -0.0000    0.0000   -0.0000    0.0000   -0.0000
    49 N2     *d0        0.4980    0.0000   -0.0000    1.2965   -0.0000    0.0000   -0.0000    0.0000   -0.0000    0.0000
    50 N2     *d1+      -0.0000    0.0122   -0.0000   -0.0000    0.0000   -0.0000   -0.0000    0.0000   -0.5921   -0.0000
    51 N2     *d1+       0.0000    0.7280   -0.0000   -0.0000   -0.0000    0.0000    0.0000    0.0000    0.3697    0.0000
    52 N2     *d2+      -0.0000    0.0000    0.0000   -0.0000   -0.2420   -0.0000   -0.0000    0.0000   -0.0000   -0.0000
    53 N2     *d2+       0.0000    0.0000    0.0000    0.0000    0.2194    0.0000    0.0000   -0.0000    0.0000    0.0000
    54 N2     *f3-       0.0000    0.0000    0.0000   -0.0000    0.0000   -0.0000    0.0000    0.6617   -0.0000    0.0000
    55 N2     *f2-      -0.0000   -0.0000    0.0000   -0.0000   -0.0000    0.5640    0.0000    0.0000   -0.0000    0.0000
    56 N2     *f1-      -0.0000    0.0000    0.0676    0.0000   -0.0000   -0.0000   -0.0000   -0.0000   -0.0000    0.2721
    57 N2     *f0        0.3527   -0.0000    0.0000   -0.1304    0.0000   -0.0000    0.0000   -0.0000   -0.0000    0.0000
    58 N2     *f1+       0.0000    0.0676   -0.0000   -0.0000   -0.0000    0.0000    0.0000   -0.0000    0.2721    0.0000
    59 N2     *f2+      -0.0000    0.0000    0.0000    0.0000    0.5640    0.0000    0.0000   -0.0000    0.0000    0.0000
    60 N2     *f3+       0.0000   -0.0000    0.0000    0.0000   -0.0000   -0.0000    0.6617   -0.0000   -0.0000   -0.0000


      Orbital                41        42        43        44        45        46        47        48        49        50
      Energy             0.0000    0.0000    0.0000    0.0000    0.0000    0.0000    0.0000    0.0000    0.0000    0.0000
      Occ. No.           0.0000    0.0000    0.0000    0.0000    0.0000    0.0000    0.0000    0.0000    0.0000    0.0000

     1 N1     1s        -0.4336    0.0000   -0.0000    0.0000    0.0000   -0.0000   -0.0000   -0.0000    0.0000    0.2985
     2 N1     2s        -0.7945   -0.0000   -0.0000    0.0000    0.0000   -0.0000   -0.0000   -0.0000    0.0000    1.2397
     3 N1     *s         0.9703   -0.0000    0.0000   -0.0000    0.0000    0.0000   -0.0000    0.0000    0.0000    0.4232
     4 N1     *s         0.4434   -0.0000    0.0000    0.0000    0.0000   -0.0000    0.0000   -0.0000    0.0000    2.0854
     5 N1     2px       -0.0000    0.0000    0.0000   -0.6086   -0.0000    0.0000   -0.0000    0.0000   -0.0000   -0.0000
     6 N1     *px        0.0000   -0.0000    0.0000    2.1762    0.0000   -0.0000    0.0000   -0.0000   -0.0000   -0.0000
     7 N1     *px        0.0000   -0.0000    0.0000    0.8854    0.0000   -0.0000    0.0000   -0.0000   -0.0000   -0.0000
     8 N1     2py        0.0000   -0.0000   -0.0000   -0.0000    0.6086    0.0000    0.0000    0.0000    0.0000    0.0000
     9 N1     *py       -0.0000   -0.0000   -0.0000    0.0000   -2.1762   -0.0000   -0.0000    0.0000   -0.0000    0.0000
    10 N1     *py        0.0000   -0.0000   -0.0000    0.0000   -0.8854   -0.0000   -0.0000    0.0000   -0.0000    0.0000
    11 N1     2pz       -0.5584    0.0000   -0.0000    0.0000    0.0000    0.0000   -0.0000    0.0000   -0.0000    0.7895
    12 N1     *pz        0.4213   -0.0000    0.0000   -0.0000   -0.0000   -0.0000    0.0000   -0.0000    0.0000    0.5223
    13 N1     *pz       -0.1936   -0.0000    0.0000    0.0000   -0.0000   -0.0000    0.0000   -0.0000    0.0000    0.7431
    14 N1     *d2-       0.0000   -0.0000   -0.0000   -0.0000   -0.0000   -0.0000    0.7847   -0.0000   -0.7880    0.0000
    15 N1     *d2-      -0.0000    0.0000    0.0000    0.0000    0.0000    0.0000   -0.3149    0.0000    0.6581   -0.0000
    16 N1     *d1-       0.0000    0.0000    0.0000   -0.0000    0.4054    0.0000    0.0000    0.0000    0.0000    0.0000
    17 N1     *d1-      -0.0000   -0.0000   -0.0000    0.0000   -1.8971   -0.0000   -0.0000    0.0000    0.0000    0.0000
    18 N1     *d0        0.6934   -0.0000   -0.0000   -0.0000    0.0000    0.0000   -0.0000   -0.0000    0.0000   -0.1714
    19 N1     *d0       -0.6639    0.0000    0.0000    0.0000    0.0000   -0.0000    0.0000   -0.0000    0.0000    0.7888
    20 N1     *d1+      -0.0000   -0.0000    0.0000   -0.4054   -0.0000    0.0000   -0.0000    0.0000   -0.0000   -0.0000
    21 N1     *d1+       0.0000   -0.0000    0.0000    1.8971    0.0000   -0.0000    0.0000    0.0000   -0.0000   -0.0000
    22 N1     *d2+      -0.0000    0.0000   -0.0000    0.0000   -0.0000    0.7844    0.0000   -0.7882    0.0000   -0.0000
    23 N1     *d2+       0.0000   -0.0000    0.0000   -0.0000    0.0000   -0.3147   -0.0000    0.6582   -0.0000    0.0000
    24 N1     *f3-      -0.0000   -0.7634   -0.0000   -0.0000    0.0000    0.0000   -0.0000   -0.0000    0.0000    0.0000
    25 N1     *f2-      -0.0000    0.0000    0.0000    0.0000    0.0000    0.0000   -0.2278    0.0000    0.3393   -0.0000
    26 N1     *f1-      -0.0000   -0.0000   -0.0000    0.0000   -0.9144   -0.0000   -0.0000    0.0000   -0.0000    0.0000
    27 N1     *f0       -0.1363    0.0000   -0.0000    0.0000    0.0000   -0.0000    0.0000   -0.0000    0.0000    0.9009
    28 N1     *f1+       0.0000   -0.0000    0.0000    0.9144    0.0000   -0.0000    0.0000   -0.0000   -0.0000   -0.0000
    29 N1     *f2+       0.0000   -0.0000    0.0000   -0.0000    0.0000   -0.2277   -0.0000    0.3394   -0.0000   -0.0000
    30 N1     *f3+      -0.0000    0.0000   -0.7634    0.0000   -0.0000   -0.0000   -0.0000    0.0000    0.0000   -0.0000
    31 N2     1s        -0.4333   -0.0000    0.0000    0.0000    0.0000   -0.0000   -0.0000    0.0000   -0.0000   -0.2975
    32 N2     2s        -0.7936   -0.0000    0.0000    0.0000   -0.0000   -0.0000   -0.0000    0.0000   -0.0000   -1.2373
    33 N2     *s         0.9700    0.0000   -0.0000   -0.0000   -0.0000    0.0000   -0.0000    0.0000    0.0000   -0.4239
    34 N2     *s         0.4433    0.0000   -0.0000   -0.0000   -0.0000    0.0000    0.0000    0.0000   -0.0000   -2.0870
    35 N2     2px       -0.0000    0.0000   -0.0000    0.6086    0.0000   -0.0000    0.0000   -0.0000    0.0000    0.0000
    36 N2     *px       -0.0000    0.0000   -0.0000   -2.1761   -0.0000    0.0000   -0.0000    0.0000    0.0000    0.0000
    37 N2     *px       -0.0000    0.0000   -0.0000   -0.8854   -0.0000    0.0000   -0.0000    0.0000    0.0000    0.0000
    38 N2     2py        0.0000   -0.0000   -0.0000    0.0000   -0.6086   -0.0000   -0.0000   -0.0000   -0.0000   -0.0000
    39 N2     *py       -0.0000    0.0000    0.0000   -0.0000    2.1762    0.0000    0.0000   -0.0000    0.0000   -0.0000
    40 N2     *py       -0.0000    0.0000    0.0000   -0.0000    0.8854    0.0000    0.0000   -0.0000    0.0000    0.0000
    41 N2     2pz        0.5584    0.0000   -0.0000   -0.0000   -0.0000    0.0000    0.0000   -0.0000    0.0000    0.7883
    42 N2     *pz       -0.4217   -0.0000    0.0000    0.0000    0.0000   -0.0000    0.0000   -0.0000    0.0000    0.5233
    43 N2     *pz        0.1935   -0.0000    0.0000    0.0000    0.0000   -0.0000   -0.0000   -0.0000    0.0000    0.7439
    44 N2     *d2-      -0.0000    0.0000    0.0000   -0.0000   -0.0000   -0.0000    0.7847    0.0000    0.7879   -0.0000
    45 N2     *d2-       0.0000   -0.0000   -0.0000    0.0000    0.0000    0.0000   -0.3149   -0.0000   -0.6580    0.0000
    46 N2     *d1-      -0.0000   -0.0000   -0.0000   -0.0000    0.4054    0.0000    0.0000   -0.0000   -0.0000    0.0000
    47 N2     *d1-       0.0000   -0.0000   -0.0000    0.0000   -1.8971   -0.0000   -0.0000    0.0000    0.0000    0.0000
    48 N2     *d0        0.6934   -0.0000   -0.0000   -0.0000   -0.0000    0.0000   -0.0000   -0.0000    0.0000    0.1717
    49 N2     *d0       -0.6638    0.0000   -0.0000   -0.0000   -0.0000    0.0000    0.0000    0.0000   -0.0000   -0.7896
    50 N2     *d1+       0.0000   -0.0000    0.0000   -0.4054   -0.0000    0.0000   -0.0000   -0.0000    0.0000   -0.0000
    51 N2     *d1+       0.0000   -0.0000    0.0000    1.8971    0.0000   -0.0000    0.0000    0.0000   -0.0000   -0.0000
    52 N2     *d2+      -0.0000   -0.0000    0.0000    0.0000   -0.0000    0.7850    0.0000    0.7876   -0.0000    0.0000
    53 N2     *d2+      -0.0000    0.0000   -0.0000   -0.0000    0.0000   -0.3152   -0.0000   -0.6580    0.0000   -0.0000
    54 N2     *f3-       0.0000    0.7634    0.0000   -0.0000    0.0000    0.0000    0.0000    0.0000   -0.0000   -0.0000
    55 N2     *f2-       0.0000    0.0000    0.0000   -0.0000   -0.0000   -0.0000    0.2278    0.0000    0.3393   -0.0000
    56 N2     *f1-      -0.0000    0.0000    0.0000   -0.0000    0.9144    0.0000    0.0000   -0.0000   -0.0000   -0.0000
    57 N2     *f0        0.1363    0.0000   -0.0000    0.0000    0.0000   -0.0000   -0.0000   -0.0000    0.0000    0.9013
    58 N2     *f1+      -0.0000    0.0000   -0.0000   -0.9144   -0.0000    0.0000   -0.0000   -0.0000    0.0000    0.0000
    59 N2     *f2+       0.0000   -0.0000    0.0000    0.0000   -0.0000    0.2279    0.0000    0.3393   -0.0000   -0.0000
    60 N2     *f3+       0.0000   -0.0000    0.7634    0.0000   -0.0000    0.0000   -0.0000   -0.0000   -0.0000    0.0000


      Orbital                51        52        53        54        55        56        57        58        59        60
      Energy             0.0000    0.0000    0.0000    0.0000    0.0000    0.0000    0.0000    0.0000    0.0000    0.0000
      Occ. No.           0.0000    0.0000    0.0000    0.0000    0.0000    0.0000    0.0000    0.0000    0.0000    0.0000

     1 N1     1s         1.4430    0.0000   -0.0000   -0.0000    0.0000   -0.2787    0.0000   -0.0000   -0.8841   -5.6233
     2 N1     2s         3.6335    0.0000   -0.0000   -0.0000    0.0000   -0.0588   -0.0000   -0.0000   -1.5181  -16.9701
     3 N1     *s        -1.0322   -0.0000    0.0000   -0.0000    0.0000    0.7711    0.0000    0.0000    2.3208    3.9535
     4 N1     *s        -2.4345   -0.0000    0.0000    0.0000   -0.0000   -0.9486    0.0000   -0.0000    0.6099   -1.7556
     5 N1     2px        0.0000   -0.0000    0.0000   -0.5816   -0.0000   -0.0000   -0.4795   -0.0000   -0.0000   -0.0000
     6 N1     *px       -0.0000   -0.0000   -0.0000    0.1701    0.0000    0.0000    2.3765    0.0000    0.0000    0.0000
     7 N1     *px       -0.0000    0.0000   -0.0000    0.2440    0.0000    0.0000    0.4024    0.0000    0.0000    0.0000
     8 N1     2py       -0.0000    0.0000    0.0000    0.0000   -0.5816    0.0000    0.0000   -0.4795    0.0000    0.0000
     9 N1     *py        0.0000   -0.0000    0.0000   -0.0000    0.1701   -0.0000   -0.0000    2.3766   -0.0000   -0.0000
    10 N1     *py        0.0000   -0.0000   -0.0000   -0.0000    0.2440   -0.0000   -0.0000    0.4024   -0.0000   -0.0000
    11 N1     2pz        1.8412    0.0000   -0.0000   -0.0000    0.0000    1.3107   -0.0000    0.0000    2.5246    0.4182
    12 N1     *pz       -1.6358    0.0000    0.0000    0.0000   -0.0000   -0.3020    0.0000   -0.0000   -2.1296   -8.4992
    13 N1     *pz       -1.2906   -0.0000    0.0000    0.0000   -0.0000   -0.9457    0.0000   -0.0000   -1.0759   -3.2272
    14 N1     *d2-       0.0000    0.3173   -0.0000   -0.0000    0.0000   -0.0000   -0.0000    0.0000    0.0000   -0.0000
    15 N1     *d2-       0.0000    0.2543   -0.0000   -0.0000    0.0000    0.0000    0.0000   -0.0000    0.0000    0.0000
    16 N1     *d1-       0.0000    0.0000    0.0000    0.0000   -0.6080   -0.0000   -0.0000    1.0324   -0.0000    0.0000
    17 N1     *d1-      -0.0000   -0.0000   -0.0000   -0.0000    0.4197   -0.0000   -0.0000    1.3836   -0.0000   -0.0000
    18 N1     *d0        0.4015   -0.0000   -0.0000   -0.0000    0.0000    1.0953   -0.0000    0.0000   -0.0479   -1.0072
    19 N1     *d0       -1.2210    0.0000    0.0000    0.0000   -0.0000   -0.2579    0.0000   -0.0000   -0.8523   -2.8782
    20 N1     *d1+      -0.0000   -0.0000    0.0000   -0.6080   -0.0000    0.0000    1.0324    0.0000   -0.0000   -0.0000
    21 N1     *d1+       0.0000    0.0000   -0.0000    0.4196    0.0000    0.0000    1.3836    0.0000   -0.0000    0.0000
    22 N1     *d2+       0.0000    0.0000    0.3174    0.0000    0.0000    0.0000    0.0000    0.0000    0.0000    0.0000
    23 N1     *d2+       0.0000    0.0000    0.2543    0.0000    0.0000    0.0000   -0.0000   -0.0000   -0.0000   -0.0000
    24 N1     *f3-      -0.0000   -0.0000    0.0000   -0.0000   -0.0000    0.0000    0.0000   -0.0000   -0.0000   -0.0000
    25 N1     *f2-      -0.0000    0.9895   -0.0000   -0.0000    0.0000    0.0000    0.0000   -0.0000    0.0000    0.0000
    26 N1     *f1-      -0.0000   -0.0000   -0.0000   -0.0000    0.6938   -0.0000   -0.0000    1.2743   -0.0000   -0.0000
    27 N1     *f0       -0.5568    0.0000    0.0000    0.0000   -0.0000    0.4392    0.0000   -0.0000   -0.7922   -0.7217
    28 N1     *f1+       0.0000    0.0000   -0.0000    0.6938    0.0000    0.0000    1.2743    0.0000    0.0000    0.0000
    29 N1     *f2+       0.0000    0.0000    0.9895    0.0000    0.0000    0.0000   -0.0000   -0.0000   -0.0000   -0.0000
    30 N1     *f3+      -0.0000   -0.0000   -0.0000    0.0000    0.0000   -0.0000    0.0000    0.0000    0.0000   -0.0000
    31 N2     1s         1.4422    0.0000   -0.0000   -0.0000    0.0000    0.2788   -0.0000    0.0000   -0.8832    5.6238
    32 N2     2s         3.6314   -0.0000   -0.0000   -0.0000    0.0000    0.0592   -0.0000    0.0000   -1.5152   16.9712
    33 N2     *s        -1.0311   -0.0000    0.0000   -0.0000    0.0000   -0.7709    0.0000    0.0000    2.3202   -3.9542
    34 N2     *s        -2.4327   -0.0000    0.0000    0.0000   -0.0000    0.9483   -0.0000    0.0000    0.6097    1.7549
    35 N2     2px        0.0000   -0.0000    0.0000   -0.5815   -0.0000    0.0000    0.4795    0.0000   -0.0000    0.0000
    36 N2     *px       -0.0000    0.0000   -0.0000    0.1701    0.0000   -0.0000   -2.3765   -0.0000    0.0000   -0.0000
    37 N2     *px        0.0000    0.0000   -0.0000    0.2440    0.0000   -0.0000   -0.4024   -0.0000    0.0000   -0.0000
    38 N2     2py       -0.0000    0.0000    0.0000    0.0000   -0.5815   -0.0000   -0.0000    0.4795    0.0000   -0.0000
    39 N2     *py        0.0000   -0.0000   -0.0000   -0.0000    0.1701    0.0000    0.0000   -2.3765   -0.0000    0.0000
    40 N2     *py        0.0000   -0.0000   -0.0000   -0.0000    0.2439   -0.0000    0.0000   -0.4024   -0.0000    0.0000
    41 N2     2pz       -1.8420    0.0000    0.0000    0.0000   -0.0000    1.3099   -0.0000    0.0000   -2.5248    0.4183
    42 N2     *pz        1.6367    0.0000   -0.0000   -0.0000    0.0000   -0.3013    0.0000   -0.0000    2.1283   -8.4993
    43 N2     *pz        1.2905   -0.0000   -0.0000   -0.0000    0.0000   -0.9453    0.0000   -0.0000    1.0756   -3.2271
    44 N2     *d2-       0.0000   -0.3173    0.0000    0.0000   -0.0000   -0.0000   -0.0000    0.0000   -0.0000    0.0000
    45 N2     *d2-       0.0000   -0.2543    0.0000    0.0000   -0.0000    0.0000   -0.0000    0.0000   -0.0000   -0.0000
    46 N2     *d1-      -0.0000   -0.0000   -0.0000   -0.0000    0.6080   -0.0000   -0.0000    1.0324   -0.0000   -0.0000
    47 N2     *d1-       0.0000    0.0000    0.0000    0.0000   -0.4196   -0.0000   -0.0000    1.3836   -0.0000   -0.0000
    48 N2     *d0        0.4014   -0.0000   -0.0000   -0.0000    0.0000   -1.0952    0.0000   -0.0000   -0.0476    1.0072
    49 N2     *d0       -1.2209   -0.0000    0.0000    0.0000   -0.0000    0.2576   -0.0000    0.0000   -0.8519    2.8782
    50 N2     *d1+       0.0000    0.0000   -0.0000    0.6080    0.0000    0.0000    1.0324    0.0000    0.0000    0.0000
    51 N2     *d1+      -0.0000   -0.0000    0.0000   -0.4197   -0.0000    0.0000    1.3836    0.0000   -0.0000    0.0000
    52 N2     *d2+      -0.0000   -0.0000   -0.3173   -0.0000   -0.0000    0.0000    0.0000    0.0000   -0.0000   -0.0000
    53 N2     *d2+      -0.0000   -0.0000   -0.2543   -0.0000   -0.0000   -0.0000    0.0000    0.0000    0.0000    0.0000
    54 N2     *f3-       0.0000    0.0000   -0.0000   -0.0000    0.0000   -0.0000    0.0000    0.0000    0.0000    0.0000
    55 N2     *f2-      -0.0000    0.9895   -0.0000   -0.0000    0.0000   -0.0000    0.0000   -0.0000    0.0000    0.0000
    56 N2     *f1-      -0.0000   -0.0000   -0.0000   -0.0000    0.6938    0.0000    0.0000   -1.2743    0.0000    0.0000
    57 N2     *f0        0.5562    0.0000   -0.0000   -0.0000    0.0000    0.4395    0.0000    0.0000    0.7920   -0.7217
    58 N2     *f1+       0.0000    0.0000   -0.0000    0.6938    0.0000   -0.0000   -1.2743   -0.0000    0.0000   -0.0000
    59 N2     *f2+       0.0000    0.0000    0.9895    0.0000    0.0000    0.0000   -0.0000   -0.0000   -0.0000   -0.0000
    60 N2     *f3+       0.0000    0.0000    0.0000   -0.0000   -0.0000    0.0000   -0.0000    0.0000   -0.0000   -0.0000
--

      Von Neumann Entropy (Root   1) =  0.24996


      Mulliken population analysis for root number:  1
      -----------------------------------------------


++    Molecular charges:
      ------------------

      Mulliken charges per centre and basis function type
      ---------------------------------------------------

                N1      N2    
      1s       1.9991  1.9992
      2s       1.7104  1.7105
      2px      1.0673  1.0673
      2pz      1.5567  1.5566
      2py      1.0673  1.0673
      *s      -0.0109 -0.0109
      *px     -0.1011 -0.1011
      *pz     -0.2817 -0.2816
      *py     -0.1011 -0.1011
      *d2+     0.0000  0.0000
      *d1+     0.0336  0.0336
      *d0      0.0193  0.0193
      *d1-     0.0336  0.0336
      *d2-    -0.0000  0.0000
      *f3+     0.0000  0.0000
      *f2+    -0.0000 -0.0000
      *f1+     0.0030  0.0030
      *f0      0.0012  0.0012
      *f1-     0.0030  0.0030
      *f2-     0.0000  0.0000
      *f3-     0.0000  0.0000
      Total    6.9999  7.0001

      N-E      0.0001 -0.0001

      Total electronic charge=   14.000000

      Total            charge=   -0.000000
--



      Expectation values of various properties for root number:  1
      -----------------------------------------------------------

      Properties not supported for DMRGSCF 

++    Molecular properties:
      ---------------------

      Charge (e):
                      =   -0.0000
      Dipole Moment (Debye):
      Origin of the operator (Ang)=    0.0000    0.0000    0.0000
                   X=  3.0091E-07               Y= -4.4589E-07               Z=  2.7149E-05           Total=  2.7155E-05
      Quadrupole Moment (Debye*Ang):
      Origin of the operator (Ang)=    0.0000    0.0000    0.5000
                  XX= -9.9751E+00              XY= -1.0384E-10              XZ= -2.7359E-07              YY= -9.9751E+00
                  YZ= -1.8188E-07              ZZ= -1.1781E+01
      In traceless form (Debye*Ang)
                  XX=  9.0273E-01              XY= -1.5576E-10              XZ= -4.1039E-07              YY=  9.0273E-01
                  YZ= -2.7283E-07              ZZ= -1.8055E+00
--


      Input file to MOLDEN was generated!

      Average orbitals are written to the RASORB file
      Natural orbitals for root   1 are written to the RASORB.1 file
      Spin density orbitals for root   1 are written to the SPDORB.1 file

--- Stop Module: dmrgscf at Tue Apr  9 00:41:44 2024 /rc=_RC_ALL_IS_WELL_ ---
*** files: n2.GssOrb n2.guessorb.h5 n2.rasscf.molden n2.guessorb.molden n2.scf.molden n2.RasOrb n2.RasOrb.1 n2.dmrgscf.h5 n2.ScfOrb n2.scf.h5 n2.SpdOrb.1 xmldump
    saved to directory /public/home/xzzeng/work/HQC/N2/cc-pvtz/NO/PES/entropy/1.0/results/work_dir/n2/dmrg
--- Module dmrgscf spent 4 seconds ---

.##################.
.# Happy landing! #.
.##################.

    Timing: Wall=4.76 User=2.84 System=0.23
