title                                                                   
Guess=OnlyRHF                                                         CC-pVDZ             
Number of atoms                            I               19
Info1-9                                    I   N=           9
          29           6           0           0           0         100
           3           1           2
Full Title                                 C   N=           1
title       
Route                                      C   N=           8
#p RHF/cc-pvdz nosymm int=nobasistransform guess(read,only) 
geom=allcheck pop=SaveNLMOs         
Charge                                     I                0
Multiplicity                               I                1
Number of electrons                        I              112
Number of alpha electrons                  I               56
Number of beta electrons                   I               56
Number of basis functions                  I              220
Number of independent functions            I              220
Number of point charges in /Mol/           I                0
Number of translation vectors              I                0
Atomic numbers                             I   N=          19
           6           6           6           6           6           6
           6           6           1           1           8           8
           1           1           1           1          17          17
           8
Nuclear charges                            R   N=          19
  6.00000000E+00  6.00000000E+00  6.00000000E+00  6.00000000E+00  6.00000000E+00
  6.00000000E+00  6.00000000E+00  6.00000000E+00  1.00000000E+00  1.00000000E+00
  8.00000000E+00  8.00000000E+00  1.00000000E+00  1.00000000E+00  1.00000000E+00
  1.00000000E+00  1.70000000E+01  1.70000000E+01  8.00000000E+00
Current cartesian coordinates              R   N=          57
 -3.28413991E+00 -1.31347682E+00  1.85644994E+00 -3.28460668E+00  1.31239590E+00
  1.85652175E+00  6.73914131E-01  2.68760629E+00  2.89133388E+00  2.23004879E+00
  1.34294710E+00  1.27859248E+00  2.23051555E+00 -1.34233105E+00  1.27858870E+00
  6.74753169E-01 -2.68752692E+00  2.89124885E+00 -3.24879637E+00 -2.15638160E+00
 -8.21826774E-01 -3.24963352E+00  2.15548020E+00 -8.21711500E-01  5.40807492E-01
  4.72306242E+00  2.69598344E+00  5.42230455E-01 -4.72300951E+00  2.69578502E+00
 -3.40915475E+00  4.23440948E+00 -1.70960121E+00 -3.40739730E+00 -4.23533356E+00
 -1.70983932E+00  2.23957112E-01 -1.93105632E+00  4.73746592E+00  2.23407202E-01
  1.93092404E+00  4.73753773E+00 -4.05222666E+00 -2.53375613E+00  3.30630640E+00
 -4.05305814E+00  2.53234261E+00  3.30646703E+00  3.78269691E+00 -2.99848702E+00
 -1.11689050E+00  3.78154229E+00  2.99962653E+00 -1.11696609E+00 -2.99213754E+00
 -3.49599333E-04 -2.32545728E+00
Number of symbols in /Mol/                 I                0
Int Atom Types                             I   N=          19
           0           0           0           0           0           0
           0           0           0           0           0           0
           0           0           0           0           0           0
           0
Force Field                                I                0
Atom Types                                 C   N=          19
                                                            
                                                            
                                                            
                                                
MM charges                                 R   N=          19
  0.00000000E+00  0.00000000E+00  0.00000000E+00  0.00000000E+00  0.00000000E+00
  0.00000000E+00  0.00000000E+00  0.00000000E+00  0.00000000E+00  0.00000000E+00
  0.00000000E+00  0.00000000E+00  0.00000000E+00  0.00000000E+00  0.00000000E+00
  0.00000000E+00  0.00000000E+00  0.00000000E+00  0.00000000E+00
Integer atomic weights                     I   N=          19
          12          12          12          12          12          12
          12          12           1           1          16          16
           1           1           1           1          35          35
          16
Real atomic weights                        R   N=          19
  1.20000000E+01  1.20000000E+01  1.20000000E+01  1.20000000E+01  1.20000000E+01
  1.20000000E+01  1.20000000E+01  1.20000000E+01  1.00782504E+00  1.00782504E+00
  1.59949146E+01  1.59949146E+01  1.00782504E+00  1.00782504E+00  1.00782504E+00
  1.00782504E+00  3.49688527E+01  3.49688527E+01  1.59949146E+01
Atom fragment info                         I   N=          19
           0           0           0           0           0           0
           0           0           0           0           0           0
           0           0           0           0           0           0
           0
Atom residue num                           I   N=          19
           0           0           0           0           0           0
           0           0           0           0           0           0
           0           0           0           0           0           0
           0
Nuclear spins                              I   N=          19
           0           0           0           0           0           0
           0           0           1           1           0           0
           1           1           1           1           3           3
           0
Nuclear ZEff                               R   N=          19
 -3.60000000E+00 -3.60000000E+00 -3.60000000E+00 -3.60000000E+00 -3.60000000E+00
 -3.60000000E+00 -3.60000000E+00 -3.60000000E+00 -1.00000000E+00 -1.00000000E+00
 -5.60000000E+00 -5.60000000E+00 -1.00000000E+00 -1.00000000E+00 -1.00000000E+00
 -1.00000000E+00 -1.42400000E+01 -1.42400000E+01 -5.60000000E+00
Nuclear ZNuc                               R   N=          19
  6.00000000E+00  6.00000000E+00  6.00000000E+00  6.00000000E+00  6.00000000E+00
  6.00000000E+00  6.00000000E+00  6.00000000E+00  1.00000000E+00  1.00000000E+00
  8.00000000E+00  8.00000000E+00  1.00000000E+00  1.00000000E+00  1.00000000E+00
  1.00000000E+00  1.70000000E+01  1.70000000E+01  8.00000000E+00
Nuclear QMom                               R   N=          19
  0.00000000E+00  0.00000000E+00  0.00000000E+00  0.00000000E+00  0.00000000E+00
  0.00000000E+00  0.00000000E+00  0.00000000E+00  0.00000000E+00  0.00000000E+00
  0.00000000E+00  0.00000000E+00  0.00000000E+00  0.00000000E+00  0.00000000E+00
  0.00000000E+00 -8.16500000E+00 -8.16500000E+00  0.00000000E+00
Nuclear GFac                               R   N=          19
  0.00000000E+00  0.00000000E+00  0.00000000E+00  0.00000000E+00  0.00000000E+00
  0.00000000E+00  0.00000000E+00  0.00000000E+00  2.79284600E+00  2.79284600E+00
  0.00000000E+00  0.00000000E+00  2.79284600E+00  2.79284600E+00  2.79284600E+00
  2.79284600E+00  8.21874000E-01  8.21874000E-01  0.00000000E+00
MicOpt                                     I   N=          19
          -1          -1          -1          -1          -1          -1
          -1          -1          -1          -1          -1          -1
          -1          -1          -1          -1          -1          -1
          -1
Number of residues                         I                0
Number of secondary structures             I                0
Number of contracted shells                I              100
Number of primitive shells                 I              372
Pure/Cartesian d shells                    I                0
Pure/Cartesian f shells                    I                0
Highest angular momentum                   I                2
Largest degree of contraction              I               11
Shell types                                I   N=         100
           0           0           0           1           1          -2
           0           0           0           1           1          -2
           0           0           0           1           1          -2
           0           0           0           1           1          -2
           0           0           0           1           1          -2
           0           0           0           1           1          -2
           0           0           0           1           1          -2
           0           0           0           1           1          -2
           0           0           1           0           0           1
           0           0           0           1           1          -2
           0           0           0           1           1          -2
           0           0           1           0           0           1
           0           0           1           0           0           1
           0           0           0           0           1           1
           1          -2           0           0           0           0
           1           1           1          -2           0           0
           0           1           1          -2
Number of primitives per shell             I   N=         100
           8           8           1           3           1           1
           8           8           1           3           1           1
           8           8           1           3           1           1
           8           8           1           3           1           1
           8           8           1           3           1           1
           8           8           1           3           1           1
           8           8           1           3           1           1
           8           8           1           3           1           1
           3           1           1           3           1           1
           8           8           1           3           1           1
           8           8           1           3           1           1
           3           1           1           3           1           1
           3           1           1           3           1           1
          11          11          11           1           7           7
           1           1          11          11          11           1
           7           7           1           1           8           8
           1           3           1           1
Shell to atom map                          I   N=         100
           1           1           1           1           1           1
           2           2           2           2           2           2
           3           3           3           3           3           3
           4           4           4           4           4           4
           5           5           5           5           5           5
           6           6           6           6           6           6
           7           7           7           7           7           7
           8           8           8           8           8           8
           9           9           9          10          10          10
          11          11          11          11          11          11
          12          12          12          12          12          12
          13          13          13          14          14          14
          15          15          15          16          16          16
          17          17          17          17          17          17
          17          17          18          18          18          18
          18          18          18          18          19          19
          19          19          19          19
Primitive exponents                        R   N=         372
  6.66500000E+03  1.00000000E+03  2.28000000E+02  6.47100000E+01  2.10600000E+01
  7.49500000E+00  2.79700000E+00  5.21500000E-01  6.66500000E+03  1.00000000E+03
  2.28000000E+02  6.47100000E+01  2.10600000E+01  7.49500000E+00  2.79700000E+00
  5.21500000E-01  1.59600000E-01  9.43900000E+00  2.00200000E+00  5.45600000E-01
  1.51700000E-01  5.50000000E-01  6.66500000E+03  1.00000000E+03  2.28000000E+02
  6.47100000E+01  2.10600000E+01  7.49500000E+00  2.79700000E+00  5.21500000E-01
  6.66500000E+03  1.00000000E+03  2.28000000E+02  6.47100000E+01  2.10600000E+01
  7.49500000E+00  2.79700000E+00  5.21500000E-01  1.59600000E-01  9.43900000E+00
  2.00200000E+00  5.45600000E-01  1.51700000E-01  5.50000000E-01  6.66500000E+03
  1.00000000E+03  2.28000000E+02  6.47100000E+01  2.10600000E+01  7.49500000E+00
  2.79700000E+00  5.21500000E-01  6.66500000E+03  1.00000000E+03  2.28000000E+02
  6.47100000E+01  2.10600000E+01  7.49500000E+00  2.79700000E+00  5.21500000E-01
  1.59600000E-01  9.43900000E+00  2.00200000E+00  5.45600000E-01  1.51700000E-01
  5.50000000E-01  6.66500000E+03  1.00000000E+03  2.28000000E+02  6.47100000E+01
  2.10600000E+01  7.49500000E+00  2.79700000E+00  5.21500000E-01  6.66500000E+03
  1.00000000E+03  2.28000000E+02  6.47100000E+01  2.10600000E+01  7.49500000E+00
  2.79700000E+00  5.21500000E-01  1.59600000E-01  9.43900000E+00  2.00200000E+00
  5.45600000E-01  1.51700000E-01  5.50000000E-01  6.66500000E+03  1.00000000E+03
  2.28000000E+02  6.47100000E+01  2.10600000E+01  7.49500000E+00  2.79700000E+00
  5.21500000E-01  6.66500000E+03  1.00000000E+03  2.28000000E+02  6.47100000E+01
  2.10600000E+01  7.49500000E+00  2.79700000E+00  5.21500000E-01  1.59600000E-01
  9.43900000E+00  2.00200000E+00  5.45600000E-01  1.51700000E-01  5.50000000E-01
  6.66500000E+03  1.00000000E+03  2.28000000E+02  6.47100000E+01  2.10600000E+01
  7.49500000E+00  2.79700000E+00  5.21500000E-01  6.66500000E+03  1.00000000E+03
  2.28000000E+02  6.47100000E+01  2.10600000E+01  7.49500000E+00  2.79700000E+00
  5.21500000E-01  1.59600000E-01  9.43900000E+00  2.00200000E+00  5.45600000E-01
  1.51700000E-01  5.50000000E-01  6.66500000E+03  1.00000000E+03  2.28000000E+02
  6.47100000E+01  2.10600000E+01  7.49500000E+00  2.79700000E+00  5.21500000E-01
  6.66500000E+03  1.00000000E+03  2.28000000E+02  6.47100000E+01  2.10600000E+01
  7.49500000E+00  2.79700000E+00  5.21500000E-01  1.59600000E-01  9.43900000E+00
  2.00200000E+00  5.45600000E-01  1.51700000E-01  5.50000000E-01  6.66500000E+03
  1.00000000E+03  2.28000000E+02  6.47100000E+01  2.10600000E+01  7.49500000E+00
  2.79700000E+00  5.21500000E-01  6.66500000E+03  1.00000000E+03  2.28000000E+02
  6.47100000E+01  2.10600000E+01  7.49500000E+00  2.79700000E+00  5.21500000E-01
  1.59600000E-01  9.43900000E+00  2.00200000E+00  5.45600000E-01  1.51700000E-01
  5.50000000E-01  1.30100000E+01  1.96200000E+00  4.44600000E-01  1.22000000E-01
  7.27000000E-01  1.30100000E+01  1.96200000E+00  4.44600000E-01  1.22000000E-01
  7.27000000E-01  1.17200000E+04  1.75900000E+03  4.00800000E+02  1.13700000E+02
  3.70300000E+01  1.32700000E+01  5.02500000E+00  1.01300000E+00  1.17200000E+04
  1.75900000E+03  4.00800000E+02  1.13700000E+02  3.70300000E+01  1.32700000E+01
  5.02500000E+00  1.01300000E+00  3.02300000E-01  1.77000000E+01  3.85400000E+00
  1.04600000E+00  2.75300000E-01  1.18500000E+00  1.17200000E+04  1.75900000E+03
  4.00800000E+02  1.13700000E+02  3.70300000E+01  1.32700000E+01  5.02500000E+00
  1.01300000E+00  1.17200000E+04  1.75900000E+03  4.00800000E+02  1.13700000E+02
  3.70300000E+01  1.32700000E+01  5.02500000E+00  1.01300000E+00  3.02300000E-01
  1.77000000E+01  3.85400000E+00  1.04600000E+00  2.75300000E-01  1.18500000E+00
  1.30100000E+01  1.96200000E+00  4.44600000E-01  1.22000000E-01  7.27000000E-01
  1.30100000E+01  1.96200000E+00  4.44600000E-01  1.22000000E-01  7.27000000E-01
  1.30100000E+01  1.96200000E+00  4.44600000E-01  1.22000000E-01  7.27000000E-01
  1.30100000E+01  1.96200000E+00  4.44600000E-01  1.22000000E-01  7.27000000E-01
  1.27900000E+05  1.91700000E+04  4.36300000E+03  1.23600000E+03  4.03600000E+02
  1.45700000E+02  5.68100000E+01  2.32300000E+01  6.64400000E+00  2.57500000E+00
  5.37100000E-01  1.27900000E+05  1.91700000E+04  4.36300000E+03  1.23600000E+03
  4.03600000E+02  1.45700000E+02  5.68100000E+01  2.32300000E+01  6.64400000E+00
  2.57500000E+00  5.37100000E-01  1.27900000E+05  1.91700000E+04  4.36300000E+03
  1.23600000E+03  4.03600000E+02  1.45700000E+02  5.68100000E+01  2.32300000E+01
  6.64400000E+00  2.57500000E+00  5.37100000E-01  1.93800000E-01  4.17600000E+02
  9.83300000E+01  3.10400000E+01  1.11900000E+01  4.24900000E+00  1.62400000E+00
  5.32200000E-01  4.17600000E+02  9.83300000E+01  3.10400000E+01  1.11900000E+01
  4.24900000E+00  1.62400000E+00  5.32200000E-01  1.62000000E-01  6.00000000E-01
  1.27900000E+05  1.91700000E+04  4.36300000E+03  1.23600000E+03  4.03600000E+02
  1.45700000E+02  5.68100000E+01  2.32300000E+01  6.64400000E+00  2.57500000E+00
  5.37100000E-01  1.27900000E+05  1.91700000E+04  4.36300000E+03  1.23600000E+03
  4.03600000E+02  1.45700000E+02  5.68100000E+01  2.32300000E+01  6.64400000E+00
  2.57500000E+00  5.37100000E-01  1.27900000E+05  1.91700000E+04  4.36300000E+03
  1.23600000E+03  4.03600000E+02  1.45700000E+02  5.68100000E+01  2.32300000E+01
  6.64400000E+00  2.57500000E+00  5.37100000E-01  1.93800000E-01  4.17600000E+02
  9.83300000E+01  3.10400000E+01  1.11900000E+01  4.24900000E+00  1.62400000E+00
  5.32200000E-01  4.17600000E+02  9.83300000E+01  3.10400000E+01  1.11900000E+01
  4.24900000E+00  1.62400000E+00  5.32200000E-01  1.62000000E-01  6.00000000E-01
  1.17200000E+04  1.75900000E+03  4.00800000E+02  1.13700000E+02  3.70300000E+01
  1.32700000E+01  5.02500000E+00  1.01300000E+00  1.17200000E+04  1.75900000E+03
  4.00800000E+02  1.13700000E+02  3.70300000E+01  1.32700000E+01  5.02500000E+00
  1.01300000E+00  3.02300000E-01  1.77000000E+01  3.85400000E+00  1.04600000E+00
  2.75300000E-01  1.18500000E+00
Contraction coefficients                   R   N=         372
  6.91583963E-04  5.32579615E-03  2.70607210E-02  1.01656846E-01  2.74574824E-01
  4.48294319E-01  2.84902611E-01  1.51948592E-02 -2.93269653E-04 -2.31803547E-03
 -1.14997860E-02 -4.68267270E-02 -1.28466169E-01 -3.01266272E-01 -2.55630702E-01
  1.09379336E+00  1.00000000E+00  5.69792516E-02  3.13207212E-01  7.60376742E-01
  1.00000000E+00  1.00000000E+00  6.91583963E-04  5.32579615E-03  2.70607210E-02
  1.01656846E-01  2.74574824E-01  4.48294319E-01  2.84902611E-01  1.51948592E-02
 -2.93269653E-04 -2.31803547E-03 -1.14997860E-02 -4.68267270E-02 -1.28466169E-01
 -3.01266272E-01 -2.55630702E-01  1.09379336E+00  1.00000000E+00  5.69792516E-02
  3.13207212E-01  7.60376742E-01  1.00000000E+00  1.00000000E+00  6.91583963E-04
  5.32579615E-03  2.70607210E-02  1.01656846E-01  2.74574824E-01  4.48294319E-01
  2.84902611E-01  1.51948592E-02 -2.93269653E-04 -2.31803547E-03 -1.14997860E-02
 -4.68267270E-02 -1.28466169E-01 -3.01266272E-01 -2.55630702E-01  1.09379336E+00
  1.00000000E+00  5.69792516E-02  3.13207212E-01  7.60376742E-01  1.00000000E+00
  1.00000000E+00  6.91583963E-04  5.32579615E-03  2.70607210E-02  1.01656846E-01
  2.74574824E-01  4.48294319E-01  2.84902611E-01  1.51948592E-02 -2.93269653E-04
 -2.31803547E-03 -1.14997860E-02 -4.68267270E-02 -1.28466169E-01 -3.01266272E-01
 -2.55630702E-01  1.09379336E+00  1.00000000E+00  5.69792516E-02  3.13207212E-01
  7.60376742E-01  1.00000000E+00  1.00000000E+00  6.91583963E-04  5.32579615E-03
  2.70607210E-02  1.01656846E-01  2.74574824E-01  4.48294319E-01  2.84902611E-01
  1.51948592E-02 -2.93269653E-04 -2.31803547E-03 -1.14997860E-02 -4.68267270E-02
 -1.28466169E-01 -3.01266272E-01 -2.55630702E-01  1.09379336E+00  1.00000000E+00
  5.69792516E-02  3.13207212E-01  7.60376742E-01  1.00000000E+00  1.00000000E+00
  6.91583963E-04  5.32579615E-03  2.70607210E-02  1.01656846E-01  2.74574824E-01
  4.48294319E-01  2.84902611E-01  1.51948592E-02 -2.93269653E-04 -2.31803547E-03
 -1.14997860E-02 -4.68267270E-02 -1.28466169E-01 -3.01266272E-01 -2.55630702E-01
  1.09379336E+00  1.00000000E+00  5.69792516E-02  3.13207212E-01  7.60376742E-01
  1.00000000E+00  1.00000000E+00  6.91583963E-04  5.32579615E-03  2.70607210E-02
  1.01656846E-01  2.74574824E-01  4.48294319E-01  2.84902611E-01  1.51948592E-02
 -2.93269653E-04 -2.31803547E-03 -1.14997860E-02 -4.68267270E-02 -1.28466169E-01
 -3.01266272E-01 -2.55630702E-01  1.09379336E+00  1.00000000E+00  5.69792516E-02
  3.13207212E-01  7.60376742E-01  1.00000000E+00  1.00000000E+00  6.91583963E-04
  5.32579615E-03  2.70607210E-02  1.01656846E-01  2.74574824E-01  4.48294319E-01
  2.84902611E-01  1.51948592E-02 -2.93269653E-04 -2.31803547E-03 -1.14997860E-02
 -4.68267270E-02 -1.28466169E-01 -3.01266272E-01 -2.55630702E-01  1.09379336E+00
  1.00000000E+00  5.69792516E-02  3.13207212E-01  7.60376742E-01  1.00000000E+00
  1.00000000E+00  3.34987264E-02  2.34800801E-01  8.13682958E-01  1.00000000E+00
  1.00000000E+00  3.34987264E-02  2.34800801E-01  8.13682958E-01  1.00000000E+00
  1.00000000E+00  7.09645947E-04  5.46727229E-03  2.78231186E-02  1.04747740E-01
  2.82920846E-01  4.48495239E-01  2.70816885E-01  1.54502916E-02 -3.14443412E-04
 -2.48213768E-03 -1.23163554E-02 -5.05389173E-02 -1.39384903E-01 -3.25077495E-01
 -2.29848308E-01  1.09537935E+00  1.00000000E+00  6.26791663E-02  3.33536566E-01
  7.41239642E-01  1.00000000E+00  1.00000000E+00  7.09645947E-04  5.46727229E-03
  2.78231186E-02  1.04747740E-01  2.82920846E-01  4.48495239E-01  2.70816885E-01
  1.54502916E-02 -3.14443412E-04 -2.48213768E-03 -1.23163554E-02 -5.05389173E-02
 -1.39384903E-01 -3.25077495E-01 -2.29848308E-01  1.09537935E+00  1.00000000E+00
  6.26791663E-02  3.33536566E-01  7.41239642E-01  1.00000000E+00  1.00000000E+00
  3.34987264E-02  2.34800801E-01  8.13682958E-01  1.00000000E+00  1.00000000E+00
  3.34987264E-02  2.34800801E-01  8.13682958E-01  1.00000000E+00  1.00000000E+00
  3.34987264E-02  2.34800801E-01  8.13682958E-01  1.00000000E+00  1.00000000E+00
  3.34987264E-02  2.34800801E-01  8.13682958E-01  1.00000000E+00  1.00000000E+00
  2.41145716E-04  1.87091676E-03  9.70809754E-03  3.93146016E-02  1.25929763E-01
  2.99335682E-01  4.21878505E-01  2.37196786E-01  1.91527598E-02 -3.34786053E-03
  9.29863481E-04 -6.76840188E-05 -5.20256715E-04 -2.75674048E-03 -1.11198592E-02
 -3.84748105E-02 -9.91829588E-02 -2.00780968E-01 -1.29917625E-01  5.07897328E-01
  6.08872034E-01  4.20270002E-02  3.77300006E-05  2.91349224E-04  1.53430428E-03
  6.25545006E-03  2.14854869E-02  5.69855525E-02  1.15864783E-01  8.47097410E-02
 -4.03641068E-01 -7.52341734E-01  1.17508707E+00  1.00000000E+00  5.26072545E-03
  3.98400571E-02  1.64683344E-01  3.87388675E-01  4.57150682E-01  1.51662103E-01
  1.81646264E-03 -2.29197896E-03 -1.72087598E-02 -7.50436729E-02 -1.77250417E-01
 -2.44691144E-01  1.42817093E-01  9.25035494E-01  1.00000000E+00  1.00000000E+00
  2.41145716E-04  1.87091676E-03  9.70809754E-03  3.93146016E-02  1.25929763E-01
  2.99335682E-01  4.21878505E-01  2.37196786E-01  1.91527598E-02 -3.34786053E-03
  9.29863481E-04 -6.76840188E-05 -5.20256715E-04 -2.75674048E-03 -1.11198592E-02
 -3.84748105E-02 -9.91829588E-02 -2.00780968E-01 -1.29917625E-01  5.07897328E-01
  6.08872034E-01  4.20270002E-02  3.77300006E-05  2.91349224E-04  1.53430428E-03
  6.25545006E-03  2.14854869E-02  5.69855525E-02  1.15864783E-01  8.47097410E-02
 -4.03641068E-01 -7.52341734E-01  1.17508707E+00  1.00000000E+00  5.26072545E-03
  3.98400571E-02  1.64683344E-01  3.87388675E-01  4.57150682E-01  1.51662103E-01
  1.81646264E-03 -2.29197896E-03 -1.72087598E-02 -7.50436729E-02 -1.77250417E-01
 -2.44691144E-01  1.42817093E-01  9.25035494E-01  1.00000000E+00  1.00000000E+00
  7.09645947E-04  5.46727229E-03  2.78231186E-02  1.04747740E-01  2.82920846E-01
  4.48495239E-01  2.70816885E-01  1.54502916E-02 -3.14443412E-04 -2.48213768E-03
 -1.23163554E-02 -5.05389173E-02 -1.39384903E-01 -3.25077495E-01 -2.29848308E-01
  1.09537935E+00  1.00000000E+00  6.26791663E-02  3.33536566E-01  7.41239642E-01
  1.00000000E+00  1.00000000E+00
Coordinates of each shell                  R   N=         300
 -3.28413991E+00 -1.31347682E+00  1.85644994E+00 -3.28413991E+00 -1.31347682E+00
  1.85644994E+00 -3.28413991E+00 -1.31347682E+00  1.85644994E+00 -3.28413991E+00
 -1.31347682E+00  1.85644994E+00 -3.28413991E+00 -1.31347682E+00  1.85644994E+00
 -3.28413991E+00 -1.31347682E+00  1.85644994E+00 -3.28460668E+00  1.31239590E+00
  1.85652175E+00 -3.28460668E+00  1.31239590E+00  1.85652175E+00 -3.28460668E+00
  1.31239590E+00  1.85652175E+00 -3.28460668E+00  1.31239590E+00  1.85652175E+00
 -3.28460668E+00  1.31239590E+00  1.85652175E+00 -3.28460668E+00  1.31239590E+00
  1.85652175E+00  6.73914131E-01  2.68760629E+00  2.89133388E+00  6.73914131E-01
  2.68760629E+00  2.89133388E+00  6.73914131E-01  2.68760629E+00  2.89133388E+00
  6.73914131E-01  2.68760629E+00  2.89133388E+00  6.73914131E-01  2.68760629E+00
  2.89133388E+00  6.73914131E-01  2.68760629E+00  2.89133388E+00  2.23004879E+00
  1.34294710E+00  1.27859248E+00  2.23004879E+00  1.34294710E+00  1.27859248E+00
  2.23004879E+00  1.34294710E+00  1.27859248E+00  2.23004879E+00  1.34294710E+00
  1.27859248E+00  2.23004879E+00  1.34294710E+00  1.27859248E+00  2.23004879E+00
  1.34294710E+00  1.27859248E+00  2.23051555E+00 -1.34233105E+00  1.27858870E+00
  2.23051555E+00 -1.34233105E+00  1.27858870E+00  2.23051555E+00 -1.34233105E+00
  1.27858870E+00  2.23051555E+00 -1.34233105E+00  1.27858870E+00  2.23051555E+00
 -1.34233105E+00  1.27858870E+00  2.23051555E+00 -1.34233105E+00  1.27858870E+00
  6.74753169E-01 -2.68752692E+00  2.89124885E+00  6.74753169E-01 -2.68752692E+00
  2.89124885E+00  6.74753169E-01 -2.68752692E+00  2.89124885E+00  6.74753169E-01
 -2.68752692E+00  2.89124885E+00  6.74753169E-01 -2.68752692E+00  2.89124885E+00
  6.74753169E-01 -2.68752692E+00  2.89124885E+00 -3.24879637E+00 -2.15638160E+00
 -8.21826774E-01 -3.24879637E+00 -2.15638160E+00 -8.21826774E-01 -3.24879637E+00
 -2.15638160E+00 -8.21826774E-01 -3.24879637E+00 -2.15638160E+00 -8.21826774E-01
 -3.24879637E+00 -2.15638160E+00 -8.21826774E-01 -3.24879637E+00 -2.15638160E+00
 -8.21826774E-01 -3.24963352E+00  2.15548020E+00 -8.21711500E-01 -3.24963352E+00
  2.15548020E+00 -8.21711500E-01 -3.24963352E+00  2.15548020E+00 -8.21711500E-01
 -3.24963352E+00  2.15548020E+00 -8.21711500E-01 -3.24963352E+00  2.15548020E+00
 -8.21711500E-01 -3.24963352E+00  2.15548020E+00 -8.21711500E-01  5.40807492E-01
  4.72306242E+00  2.69598344E+00  5.40807492E-01  4.72306242E+00  2.69598344E+00
  5.40807492E-01  4.72306242E+00  2.69598344E+00  5.42230455E-01 -4.72300951E+00
  2.69578502E+00  5.42230455E-01 -4.72300951E+00  2.69578502E+00  5.42230455E-01
 -4.72300951E+00  2.69578502E+00 -3.40915475E+00  4.23440948E+00 -1.70960121E+00
 -3.40915475E+00  4.23440948E+00 -1.70960121E+00 -3.40915475E+00  4.23440948E+00
 -1.70960121E+00 -3.40915475E+00  4.23440948E+00 -1.70960121E+00 -3.40915475E+00
  4.23440948E+00 -1.70960121E+00 -3.40915475E+00  4.23440948E+00 -1.70960121E+00
 -3.40739730E+00 -4.23533356E+00 -1.70983932E+00 -3.40739730E+00 -4.23533356E+00
 -1.70983932E+00 -3.40739730E+00 -4.23533356E+00 -1.70983932E+00 -3.40739730E+00
 -4.23533356E+00 -1.70983932E+00 -3.40739730E+00 -4.23533356E+00 -1.70983932E+00
 -3.40739730E+00 -4.23533356E+00 -1.70983932E+00  2.23957112E-01 -1.93105632E+00
  4.73746592E+00  2.23957112E-01 -1.93105632E+00  4.73746592E+00  2.23957112E-01
 -1.93105632E+00  4.73746592E+00  2.23407202E-01  1.93092404E+00  4.73753773E+00
  2.23407202E-01  1.93092404E+00  4.73753773E+00  2.23407202E-01  1.93092404E+00
  4.73753773E+00 -4.05222666E+00 -2.53375613E+00  3.30630640E+00 -4.05222666E+00
 -2.53375613E+00  3.30630640E+00 -4.05222666E+00 -2.53375613E+00  3.30630640E+00
 -4.05305814E+00  2.53234261E+00  3.30646703E+00 -4.05305814E+00  2.53234261E+00
  3.30646703E+00 -4.05305814E+00  2.53234261E+00  3.30646703E+00  3.78269691E+00
 -2.99848702E+00 -1.11689050E+00  3.78269691E+00 -2.99848702E+00 -1.11689050E+00
  3.78269691E+00 -2.99848702E+00 -1.11689050E+00  3.78269691E+00 -2.99848702E+00
 -1.11689050E+00  3.78269691E+00 -2.99848702E+00 -1.11689050E+00  3.78269691E+00
 -2.99848702E+00 -1.11689050E+00  3.78269691E+00 -2.99848702E+00 -1.11689050E+00
  3.78269691E+00 -2.99848702E+00 -1.11689050E+00  3.78154229E+00  2.99962653E+00
 -1.11696609E+00  3.78154229E+00  2.99962653E+00 -1.11696609E+00  3.78154229E+00
  2.99962653E+00 -1.11696609E+00  3.78154229E+00  2.99962653E+00 -1.11696609E+00
  3.78154229E+00  2.99962653E+00 -1.11696609E+00  3.78154229E+00  2.99962653E+00
 -1.11696609E+00  3.78154229E+00  2.99962653E+00 -1.11696609E+00  3.78154229E+00
  2.99962653E+00 -1.11696609E+00 -2.99213754E+00 -3.49599333E-04 -2.32545728E+00
 -2.99213754E+00 -3.49599333E-04 -2.32545728E+00 -2.99213754E+00 -3.49599333E-04
 -2.32545728E+00 -2.99213754E+00 -3.49599333E-04 -2.32545728E+00 -2.99213754E+00
 -3.49599333E-04 -2.32545728E+00 -2.99213754E+00 -3.49599333E-04 -2.32545728E+00
Num ILSW                                   I              100
ILSW                                       I   N=         100
           0           0           0           0           0           0
           0           0           0           0           0          -1
           5           0           0           0           0           0
           0           0           0           0           0           0
           0           1           0           0           0           0
           0           0      100000           0          -1           0
           0           0           0           0           0           0
           0           0           0           1           0           0
           0 -2000000000           1           0           0           0
           0           0           4          52           0           0
           0           0           0           0           0           0
           0           0           0          19           0           1
           0           0           0           0           0           0
           0           0           0           0           0           0
           0           0           0           0           0           0
           0           0           0           0           0           0