[Molden Format]
[N_Atoms]
                    2
[Atoms] (AU)
N1          1      7           0.00000000      0.00000000      0.00000000
N2          2      7           0.00000000      0.00000000      2.64561657
[5D]
[7F]
[Charge] (Mulliken)
   0.0000000000000000     
   0.0000000000000000     
[GTO] (AU)
   1
   s  10
  1.142000000E+04  5.229996559E-04
  1.712000000E+03  4.044997339E-03
  3.893000000E+02  2.077498633E-02
  1.100000000E+02  8.072694689E-02
  3.557000000E+01  2.330738467E-01
  1.254000000E+01  4.335007148E-01
  4.644000000E+00  3.474717714E-01
  1.293000000E+00  4.126197285E-02
  5.118000000E-01 -8.507994403E-03
  1.787000000E-01  2.383998432E-03
   s  10
  1.142000000E+04 -1.149999544E-04
  1.712000000E+03 -8.949996452E-04
  3.893000000E+02 -4.623998167E-03
  1.100000000E+02 -1.852799265E-02
  3.557000000E+01 -5.733897727E-02
  1.254000000E+01 -1.320759476E-01
  4.644000000E+00 -1.725099316E-01
  1.293000000E+00  1.518139398E-01
  5.118000000E-01  5.999437621E-01
  1.787000000E-01  3.874618464E-01
   s   1
  1.293000000E+00  1.000000000E+00
   s   1
  1.787000000E-01  1.000000000E+00
   p   5
  2.663000000E+01  1.467000345E-02
  5.948000000E+00  9.176402155E-02
  1.742000000E+00  2.986830701E-01
  5.550000000E-01  4.984871171E-01
  1.725000000E-01  3.370230791E-01
   p   1
  5.550000000E-01  1.000000000E+00
   p   1
  1.725000000E-01  1.000000000E+00
   d   1
  1.654000000E+00  1.000000000E+00
   d   1
  4.690000000E-01  1.000000000E+00
   f   1
  1.093000000E+00  1.000000000E+00
 
   2
   s  10
  1.142000000E+04  5.229996559E-04
  1.712000000E+03  4.044997339E-03
  3.893000000E+02  2.077498633E-02
  1.100000000E+02  8.072694689E-02
  3.557000000E+01  2.330738467E-01
  1.254000000E+01  4.335007148E-01
  4.644000000E+00  3.474717714E-01
  1.293000000E+00  4.126197285E-02
  5.118000000E-01 -8.507994403E-03
  1.787000000E-01  2.383998432E-03
   s  10
  1.142000000E+04 -1.149999544E-04
  1.712000000E+03 -8.949996452E-04
  3.893000000E+02 -4.623998167E-03
  1.100000000E+02 -1.852799265E-02
  3.557000000E+01 -5.733897727E-02
  1.254000000E+01 -1.320759476E-01
  4.644000000E+00 -1.725099316E-01
  1.293000000E+00  1.518139398E-01
  5.118000000E-01  5.999437621E-01
  1.787000000E-01  3.874618464E-01
   s   1
  1.293000000E+00  1.000000000E+00
   s   1
  1.787000000E-01  1.000000000E+00
   p   5
  2.663000000E+01  1.467000345E-02
  5.948000000E+00  9.176402155E-02
  1.742000000E+00  2.986830701E-01
  5.550000000E-01  4.984871171E-01
  1.725000000E-01  3.370230791E-01
   p   1
  5.550000000E-01  1.000000000E+00
   p   1
  1.725000000E-01  1.000000000E+00
   d   1
  1.654000000E+00  1.000000000E+00
   d   1
  4.690000000E-01  1.000000000E+00
   f   1
  1.093000000E+00  1.000000000E+00
 
[MO]
Sym=     1a  
Ene=   -15.6460
Spin= Alpha
Occup=    2.00000
   1         0.70733950
   2         0.00478040
   3        -0.00163842
   4         0.00195185
   5        -0.00000000
   6         0.00000000
   7         0.00152149
   8         0.00000000
   9        -0.00000000
  10        -0.00002657
  11         0.00000000
  12        -0.00000000
  13        -0.00007082
  14        -0.00000000
  15         0.00000000
  16         0.00000000
  17         0.00000000
  18        -0.00000000
  19         0.00000000
  20         0.00000000
  21        -0.00000000
  22        -0.00000000
  23         0.00000000
  24         0.00000000
  25         0.00000000
  26        -0.00000000
  27         0.00000000
  28        -0.00000000
  29        -0.00000000
  30        -0.00000000
  31         0.70733950
  32         0.00478040
  33        -0.00163842
  34         0.00195185
  35         0.00000000
  36        -0.00000000
  37        -0.00152149
  38        -0.00000000
  39         0.00000000
  40         0.00002657
  41        -0.00000000
  42         0.00000000
  43         0.00007082
  44        -0.00000000
  45        -0.00000000
  46        -0.00000000
  47         0.00000000
  48         0.00000000
  49        -0.00000000
  50         0.00000000
  51        -0.00000000
  52         0.00000000
  53        -0.00000000
  54         0.00000000
  55        -0.00000000
  56         0.00000000
  57         0.00000000
  58         0.00000000
  59        -0.00000000
  60        -0.00000000
Sym=     2a  
Ene=   -15.6270
Spin= Alpha
Occup=    2.00000
   1        -0.70780198
   2        -0.00218446
   3         0.00166554
   4        -0.00193803
   5        -0.00000000
   6         0.00000000
   7         0.00145657
   8         0.00000000
   9        -0.00000000
  10        -0.00002544
  11         0.00000000
  12         0.00000000
  13        -0.00006780
  14         0.00000000
  15        -0.00000000
  16         0.00000000
  17        -0.00000000
  18         0.00000000
  19         0.00000000
  20         0.00000000
  21        -0.00000000
  22         0.00000000
  23         0.00000000
  24         0.00000000
  25         0.00000000
  26        -0.00000000
  27         0.00000000
  28         0.00000000
  29         0.00000000
  30         0.00000000
  31         0.70780198
  32         0.00218446
  33        -0.00166554
  34         0.00193803
  35         0.00000000
  36        -0.00000000
  37         0.00145657
  38        -0.00000000
  39         0.00000000
  40        -0.00002544
  41        -0.00000000
  42         0.00000000
  43        -0.00006780
  44         0.00000000
  45         0.00000000
  46         0.00000000
  47         0.00000000
  48         0.00000000
  49        -0.00000000
  50         0.00000000
  51        -0.00000000
  52        -0.00000000
  53        -0.00000000
  54        -0.00000000
  55        -0.00000000
  56         0.00000000
  57         0.00000000
  58         0.00000000
  59        -0.00000000
  60         0.00000000
Sym=     3a  
Ene=    -1.3413
Spin= Alpha
Occup=    2.00000
   1        -0.03422481
   2         0.54066458
   3         0.00550020
   4         0.00304747
   5        -0.00000000
   6        -0.00000000
   7         0.18820687
   8         0.00000000
   9         0.00000000
  10        -0.00328655
  11         0.00000000
  12        -0.00000000
  13        -0.00876053
  14        -0.00000000
  15        -0.00000000
  16        -0.00000000
  17         0.00000000
  18        -0.00000000
  19         0.00000000
  20         0.00000000
  21        -0.00000000
  22        -0.00000000
  23         0.00000000
  24         0.00000000
  25         0.00000000
  26        -0.00000000
  27        -0.00000000
  28         0.00000000
  29         0.00000000
  30         0.00000000
  31        -0.03422481
  32         0.54066458
  33         0.00550020
  34         0.00304747
  35         0.00000000
  36        -0.00000000
  37        -0.18820687
  38        -0.00000000
  39         0.00000000
  40         0.00328655
  41        -0.00000000
  42         0.00000000
  43         0.00876053
  44         0.00000000
  45        -0.00000000
  46         0.00000000
  47         0.00000000
  48        -0.00000000
  49        -0.00000000
  50         0.00000000
  51        -0.00000000
  52         0.00000000
  53        -0.00000000
  54         0.00000000
  55        -0.00000000
  56         0.00000000
  57        -0.00000000
  58        -0.00000000
  59         0.00000000
  60         0.00000000
Sym=     4a  
Ene=    -0.8249
Spin= Alpha
Occup=    2.00000
   1         0.00597801
   2        -0.62990029
   3        -0.00632719
   4        -0.00364265
   5        -0.00000000
   6         0.00000000
   7         0.33424854
   8         0.00000000
   9         0.00000000
  10        -0.00583679
  11         0.00000000
  12        -0.00000000
  13        -0.01555838
  14         0.00000000
  15        -0.00000000
  16        -0.00000000
  17        -0.00000000
  18         0.00000000
  19        -0.00000000
  20         0.00000000
  21         0.00000000
  22         0.00000000
  23        -0.00000000
  24        -0.00000000
  25         0.00000000
  26         0.00000000
  27        -0.00000000
  28        -0.00000000
  29        -0.00000000
  30        -0.00000000
  31        -0.00597801
  32         0.62990029
  33         0.00632719
  34         0.00364265
  35         0.00000000
  36         0.00000000
  37         0.33424854
  38        -0.00000000
  39         0.00000000
  40        -0.00583679
  41        -0.00000000
  42        -0.00000000
  43        -0.01555838
  44        -0.00000000
  45         0.00000000
  46        -0.00000000
  47        -0.00000000
  48        -0.00000000
  49         0.00000000
  50         0.00000000
  51         0.00000000
  52         0.00000000
  53         0.00000000
  54        -0.00000000
  55        -0.00000000
  56         0.00000000
  57         0.00000000
  58        -0.00000000
  59         0.00000000
  60        -0.00000000
Sym=     5a  
Ene=    -0.6846
Spin= Alpha
Occup=    2.00000
   1        -0.00000000
   2        -0.00000000
   3         0.00000000
   4         0.00000000
   5         0.67392497
   6         0.09220786
   7         0.00000000
   8        -0.01176835
   9        -0.00161017
  10        -0.00000000
  11        -0.03136941
  12        -0.00429203
  13         0.00000000
  14        -0.00000000
  15         0.00000000
  16         0.00000000
  17        -0.00000000
  18        -0.00000000
  19        -0.00000000
  20        -0.00000000
  21        -0.00000000
  22        -0.00000000
  23        -0.00000000
  24        -0.00000000
  25        -0.00000000
  26        -0.00000000
  27        -0.00000000
  28        -0.00000000
  29        -0.00000000
  30        -0.00000000
  31         0.00000000
  32         0.00000000
  33        -0.00000000
  34        -0.00000000
  35         0.67392497
  36         0.09220786
  37         0.00000000
  38        -0.01176835
  39        -0.00161017
  40        -0.00000000
  41        -0.03136941
  42        -0.00429203
  43        -0.00000000
  44        -0.00000000
  45        -0.00000000
  46         0.00000000
  47        -0.00000000
  48        -0.00000000
  49         0.00000000
  50        -0.00000000
  51        -0.00000000
  52         0.00000000
  53         0.00000000
  54        -0.00000000
  55         0.00000000
  56         0.00000000
  57        -0.00000000
  58         0.00000000
  59        -0.00000000
  60        -0.00000000
Sym=     6a  
Ene=    -0.6846
Spin= Alpha
Occup=    2.00000
   1        -0.00000000
   2        -0.00000000
   3         0.00000000
   4         0.00000000
   5        -0.09220786
   6         0.67392497
   7        -0.00000000
   8         0.00161017
   9        -0.01176835
  10        -0.00000000
  11         0.00429203
  12        -0.03136941
  13         0.00000000
  14        -0.00000000
  15        -0.00000000
  16         0.00000000
  17         0.00000000
  18        -0.00000000
  19         0.00000000
  20         0.00000000
  21        -0.00000000
  22        -0.00000000
  23         0.00000000
  24        -0.00000000
  25         0.00000000
  26        -0.00000000
  27        -0.00000000
  28         0.00000000
  29         0.00000000
  30        -0.00000000
  31         0.00000000
  32         0.00000000
  33        -0.00000000
  34        -0.00000000
  35        -0.09220786
  36         0.67392497
  37         0.00000000
  38         0.00161017
  39        -0.01176835
  40        -0.00000000
  41         0.00429203
  42        -0.03136941
  43         0.00000000
  44         0.00000000
  45        -0.00000000
  46         0.00000000
  47         0.00000000
  48        -0.00000000
  49        -0.00000000
  50         0.00000000
  51         0.00000000
  52        -0.00000000
  53         0.00000000
  54        -0.00000000
  55        -0.00000000
  56        -0.00000000
  57        -0.00000000
  58        -0.00000000
  59         0.00000000
  60         0.00000000
Sym=     7a  
Ene=    -0.6133
Spin= Alpha
Occup=    2.00000
   1         0.02017547
   2         0.33617529
   3         0.00332109
   4         0.00200762
   5        -0.00000000
   6        -0.00000000
   7        -0.66254265
   8         0.00000000
   9         0.00000000
  10         0.01156959
  11         0.00000000
  12         0.00000000
  13         0.03083959
  14        -0.00000000
  15        -0.00000000
  16        -0.00000000
  17        -0.00000000
  18         0.00000000
  19         0.00000000
  20         0.00000000
  21         0.00000000
  22         0.00000000
  23        -0.00000000
  24         0.00000000
  25         0.00000000
  26         0.00000000
  27         0.00000000
  28         0.00000000
  29         0.00000000
  30        -0.00000000
  31         0.02017547
  32         0.33617529
  33         0.00332109
  34         0.00200762
  35         0.00000000
  36        -0.00000000
  37         0.66254265
  38        -0.00000000
  39         0.00000000
  40        -0.01156959
  41        -0.00000000
  42        -0.00000000
  43        -0.03083959
  44         0.00000000
  45        -0.00000000
  46         0.00000000
  47         0.00000000
  48        -0.00000000
  49        -0.00000000
  50         0.00000000
  51        -0.00000000
  52        -0.00000000
  53         0.00000000
  54         0.00000000
  55        -0.00000000
  56         0.00000000
  57         0.00000000
  58         0.00000000
  59         0.00000000
  60        -0.00000000
Sym=     8a  
Ene=    -0.4566
Spin= Alpha
Occup=    0.00000
   1        -0.00000000
   2        -0.00000000
   3         0.00000000
   4        -0.00000000
   5         0.56635806
   6        -0.61079534
   7        -0.00000000
   8        -0.00988998
   9         0.01066596
  10        -0.00000000
  11        -0.02636246
  12         0.02843089
  13        -0.00000000
  14        -0.00000000
  15        -0.00000000
  16         0.00000000
  17        -0.00000000
  18        -0.00000000
  19        -0.00000000
  20         0.00000000
  21        -0.00000000
  22        -0.00000000
  23         0.00000000
  24        -0.00000000
  25         0.00000000
  26        -0.00000000
  27         0.00000000
  28        -0.00000000
  29         0.00000000
  30        -0.00000000
  31        -0.00000000
  32        -0.00000000
  33         0.00000000
  34         0.00000000
  35        -0.56635806
  36         0.61079534
  37        -0.00000000
  38         0.00988998
  39        -0.01066596
  40        -0.00000000
  41         0.02636246
  42        -0.02843089
  43        -0.00000000
  44         0.00000000
  45        -0.00000000
  46         0.00000000
  47        -0.00000000
  48        -0.00000000
  49         0.00000000
  50         0.00000000
  51        -0.00000000
  52        -0.00000000
  53        -0.00000000
  54        -0.00000000
  55         0.00000000
  56         0.00000000
  57        -0.00000000
  58        -0.00000000
  59        -0.00000000
  60        -0.00000000
Sym=     9a  
Ene=    -0.4566
Spin= Alpha
Occup=    0.00000
   1        -0.00000000
   2        -0.00000000
   3         0.00000000
   4        -0.00000000
   5        -0.61079534
   6        -0.56635806
   7         0.00000000
   8         0.01066596
   9         0.00988998
  10        -0.00000000
  11         0.02843089
  12         0.02636246
  13        -0.00000000
  14         0.00000000
  15        -0.00000000
  16         0.00000000
  17         0.00000000
  18        -0.00000000
  19        -0.00000000
  20        -0.00000000
  21        -0.00000000
  22         0.00000000
  23         0.00000000
  24        -0.00000000
  25        -0.00000000
  26        -0.00000000
  27        -0.00000000
  28        -0.00000000
  29         0.00000000
  30        -0.00000000
  31         0.00000000
  32         0.00000000
  33        -0.00000000
  34         0.00000000
  35         0.61079534
  36         0.56635806
  37         0.00000000
  38        -0.01066596
  39        -0.00988998
  40        -0.00000000
  41        -0.02843089
  42        -0.02636246
  43        -0.00000000
  44        -0.00000000
  45         0.00000000
  46        -0.00000000
  47         0.00000000
  48         0.00000000
  49         0.00000000
  50        -0.00000000
  51        -0.00000000
  52        -0.00000000
  53         0.00000000
  54        -0.00000000
  55        -0.00000000
  56         0.00000000
  57        -0.00000000
  58        -0.00000000
  59        -0.00000000
  60         0.00000000
Sym=    10a  
Ene=    -0.2473
Spin= Alpha
Occup=    0.00000
   1         0.06136693
   2         0.73714850
   3         0.00724149
   4         0.00444881
   5         0.00000000
   6        -0.00000000
   7         0.95291056
   8        -0.00000000
   9        -0.00000000
  10        -0.01664012
  11        -0.00000000
  12         0.00000000
  13        -0.04435545
  14        -0.00000000
  15        -0.00000000
  16        -0.00000000
  17        -0.00000000
  18        -0.00000000
  19         0.00000000
  20         0.00000000
  21         0.00000000
  22         0.00000000
  23         0.00000000
  24         0.00000000
  25         0.00000000
  26         0.00000000
  27         0.00000000
  28         0.00000000
  29         0.00000000
  30        -0.00000000
  31        -0.06136693
  32        -0.73714850
  33        -0.00724149
  34        -0.00444881
  35        -0.00000000
  36         0.00000000
  37         0.95291056
  38        -0.00000000
  39         0.00000000
  40        -0.01664012
  41         0.00000000
  42        -0.00000000
  43        -0.04435545
  44         0.00000000
  45        -0.00000000
  46        -0.00000000
  47         0.00000000
  48        -0.00000000
  49        -0.00000000
  50         0.00000000
  51         0.00000000
  52        -0.00000000
  53        -0.00000000
  54         0.00000000
  55        -0.00000000
  56         0.00000000
  57         0.00000000
  58        -0.00000000
  59        -0.00000000
  60        -0.00000000
Sym=    11a  
Ene=     3.7533
Spin= Alpha
Occup=    0.00000
   1        -0.08210822
   2        -0.29307524
   3        -0.11827199
   4         4.87919570
   5         0.00000000
   6        -0.00000000
   7        -0.08816628
   8        -0.00000000
   9         0.00000000
  10        -0.05044432
  11         0.00000000
  12        -0.00000000
  13         3.45525569
  14        -0.03931035
  15         0.00000000
  16         0.00000000
  17         0.00000000
  18         0.00000000
  19         0.60568487
  20        -0.00000000
  21        -0.00000000
  22        -0.00000000
  23        -0.00000000
  24         0.06114217
  25        -0.00000000
  26        -0.00000000
  27        -0.00000000
  28        -0.00000000
  29         0.00000000
  30         0.00000000
  31         0.08210822
  32         0.29307524
  33         0.11827199
  34        -4.87919570
  35         0.00000000
  36         0.00000000
  37        -0.08816628
  38        -0.00000000
  39        -0.00000000
  40        -0.05044432
  41         0.00000000
  42         0.00000000
  43         3.45525569
  44         0.03931035
  45        -0.00000000
  46         0.00000000
  47        -0.00000000
  48         0.00000000
  49        -0.60568487
  50         0.00000000
  51        -0.00000000
  52         0.00000000
  53        -0.00000000
  54         0.06114217
  55         0.00000000
  56         0.00000000
  57         0.00000000
  58         0.00000000
  59        -0.00000000
  60         0.00000000
Sym=    12a  
Ene=     3.9533
Spin= Alpha
Occup=    0.00000
   1        -0.02093099
   2        -0.08833301
   3         0.07379601
   4         0.38938172
   5         0.00000000
   6        -0.00000000
   7        -0.09475917
   8         0.00000000
   9         0.00000000
  10         0.79077811
  11        -0.00000000
  12        -0.00000000
  13        -1.09800407
  14         0.01516007
  15         0.00000000
  16         0.00000000
  17         0.00000000
  18        -0.00000000
  19        -0.08252975
  20        -0.00000000
  21        -0.00000000
  22        -0.00000000
  23         0.00000000
  24        -0.03140681
  25        -0.00000000
  26        -0.00000000
  27        -0.00000000
  28        -0.00000000
  29         0.00000000
  30         0.00000000
  31        -0.02093099
  32        -0.08833301
  33         0.07379601
  34         0.38938172
  35         0.00000000
  36         0.00000000
  37         0.09475917
  38        -0.00000000
  39        -0.00000000
  40        -0.79077811
  41         0.00000000
  42         0.00000000
  43         1.09800407
  44         0.01516007
  45         0.00000000
  46         0.00000000
  47        -0.00000000
  48         0.00000000
  49        -0.08252975
  50        -0.00000000
  51        -0.00000000
  52         0.00000000
  53        -0.00000000
  54         0.03140681
  55         0.00000000
  56         0.00000000
  57         0.00000000
  58        -0.00000000
  59        -0.00000000
  60         0.00000000
Sym=    13a  
Ene=     3.9742
Spin= Alpha
Occup=    0.00000
   1         0.00000000
   2         0.00000000
   3        -0.00000000
   4        -0.00000000
   5         0.03693387
   6        -0.06221879
   7         0.00000000
   8        -0.37680235
   9         0.63476109
  10        -0.00000000
  11         0.73211061
  12        -1.23331325
  13         0.00000000
  14        -0.00000000
  15        -0.00903015
  16         0.01521218
  17        -0.00000000
  18         0.00000000
  19        -0.00000000
  20         0.08529638
  21        -0.14369025
  22         0.00000000
  23        -0.00000000
  24         0.00000000
  25         0.01124773
  26        -0.01894792
  27        -0.00000000
  28         0.00000000
  29         0.00000000
  30         0.00000000
  31        -0.00000000
  32        -0.00000000
  33        -0.00000000
  34         0.00000000
  35        -0.03693387
  36         0.06221879
  37        -0.00000000
  38         0.37680235
  39        -0.63476109
  40         0.00000000
  41        -0.73211061
  42         1.23331325
  43        -0.00000000
  44        -0.00000000
  45        -0.00903015
  46         0.01521218
  47        -0.00000000
  48         0.00000000
  49         0.00000000
  50         0.08529638
  51        -0.14369025
  52         0.00000000
  53        -0.00000000
  54        -0.00000000
  55        -0.01124773
  56         0.01894792
  57        -0.00000000
  58         0.00000000
  59        -0.00000000
  60        -0.00000000
Sym=    14a  
Ene=     3.9742
Spin= Alpha
Occup=    0.00000
   1         0.00000000
   2         0.00000000
   3        -0.00000000
   4        -0.00000000
   5        -0.06221879
   6        -0.03693387
   7         0.00000000
   8         0.63476109
   9         0.37680235
  10        -0.00000000
  11        -1.23331325
  12        -0.73211061
  13         0.00000000
  14        -0.00000000
  15         0.01521218
  16         0.00903015
  17         0.00000000
  18         0.00000000
  19         0.00000000
  20        -0.14369025
  21        -0.08529638
  22        -0.00000000
  23        -0.00000000
  24         0.00000000
  25        -0.01894792
  26        -0.01124773
  27         0.00000000
  28         0.00000000
  29        -0.00000000
  30         0.00000000
  31        -0.00000000
  32        -0.00000000
  33        -0.00000000
  34         0.00000000
  35         0.06221879
  36         0.03693387
  37        -0.00000000
  38        -0.63476109
  39        -0.37680235
  40         0.00000000
  41         1.23331325
  42         0.73211061
  43        -0.00000000
  44        -0.00000000
  45         0.01521218
  46         0.00903015
  47         0.00000000
  48         0.00000000
  49         0.00000000
  50        -0.14369025
  51        -0.08529638
  52        -0.00000000
  53        -0.00000000
  54        -0.00000000
  55         0.01894792
  56         0.01124773
  57         0.00000000
  58         0.00000000
  59         0.00000000
  60        -0.00000000
Sym=    15a  
Ene=     4.0319
Spin= Alpha
Occup=    0.00000
   1         0.00000000
   2         0.00000000
   3        -0.00000000
   4         0.00000000
   5        -0.01876994
   6         0.10867302
   7         0.00000000
   8         0.13701245
   9        -0.79326594
  10        -0.00000000
  11        -0.12799148
  12         0.74103692
  13         0.00000000
  14        -0.00000000
  15        -0.00236595
  16         0.01369821
  17         0.00000000
  18         0.00000000
  19         0.00000000
  20         0.01933502
  21        -0.11194467
  22        -0.00000000
  23        -0.00000000
  24         0.00000000
  25        -0.00120512
  26         0.00697730
  27        -0.00000000
  28        -0.00000000
  29         0.00000000
  30        -0.00000000
  31        -0.00000000
  32        -0.00000000
  33         0.00000000
  34        -0.00000000
  35        -0.01876994
  36         0.10867302
  37        -0.00000000
  38         0.13701245
  39        -0.79326594
  40         0.00000000
  41        -0.12799148
  42         0.74103692
  43        -0.00000000
  44         0.00000000
  45         0.00236595
  46        -0.01369821
  47         0.00000000
  48         0.00000000
  49        -0.00000000
  50        -0.01933502
  51         0.11194467
  52        -0.00000000
  53        -0.00000000
  54        -0.00000000
  55        -0.00120512
  56         0.00697730
  57         0.00000000
  58         0.00000000
  59         0.00000000
  60        -0.00000000
Sym=    16a  
Ene=     4.0319
Spin= Alpha
Occup=    0.00000
   1         0.00000000
   2         0.00000000
   3         0.00000000
   4        -0.00000000
   5         0.10867302
   6         0.01876994
   7         0.00000000
   8        -0.79326594
   9        -0.13701245
  10        -0.00000000
  11         0.74103692
  12         0.12799148
  13        -0.00000000
  14        -0.00000000
  15         0.01369821
  16         0.00236595
  17        -0.00000000
  18        -0.00000000
  19        -0.00000000
  20        -0.11194467
  21        -0.01933502
  22         0.00000000
  23         0.00000000
  24         0.00000000
  25         0.00697730
  26         0.00120512
  27        -0.00000000
  28         0.00000000
  29         0.00000000
  30         0.00000000
  31        -0.00000000
  32        -0.00000000
  33        -0.00000000
  34         0.00000000
  35         0.10867302
  36         0.01876994
  37        -0.00000000
  38        -0.79326594
  39        -0.13701245
  40         0.00000000
  41         0.74103692
  42         0.12799148
  43        -0.00000000
  44        -0.00000000
  45        -0.01369821
  46        -0.00236595
  47        -0.00000000
  48         0.00000000
  49         0.00000000
  50         0.11194467
  51         0.01933502
  52         0.00000000
  53         0.00000000
  54        -0.00000000
  55         0.00697730
  56         0.00120512
  57         0.00000000
  58        -0.00000000
  59         0.00000000
  60        -0.00000000
Sym=    17a  
Ene=     4.3553
Spin= Alpha
Occup=    0.00000
   1         0.53201686
   2         1.95261077
   3        -0.43399730
   4        -1.74394242
   5        -0.00000000
   6        -0.00000000
   7        -0.00520126
   8        -0.00000000
   9        -0.00000000
  10        -0.02557634
  11         0.00000000
  12        -0.00000000
  13        -0.01652520
  14        -0.04077869
  15        -0.00000000
  16        -0.00000000
  17        -0.00000000
  18        -0.00000000
  19         0.27232461
  20        -0.00000000
  21        -0.00000000
  22         0.00000000
  23         0.00000000
  24        -0.01417712
  25         0.00000000
  26        -0.00000000
  27         0.00000000
  28         0.00000000
  29         0.00000000
  30         0.00000000
  31         0.53201686
  32         1.95261077
  33        -0.43399730
  34        -1.74394242
  35        -0.00000000
  36         0.00000000
  37         0.00520126
  38         0.00000000
  39        -0.00000000
  40         0.02557634
  41        -0.00000000
  42         0.00000000
  43         0.01652520
  44        -0.04077869
  45        -0.00000000
  46        -0.00000000
  47        -0.00000000
  48        -0.00000000
  49         0.27232461
  50         0.00000000
  51         0.00000000
  52         0.00000000
  53         0.00000000
  54         0.01417712
  55        -0.00000000
  56        -0.00000000
  57        -0.00000000
  58        -0.00000000
  59        -0.00000000
  60         0.00000000
Sym=    18a  
Ene=     4.4599
Spin= Alpha
Occup=    0.00000
   1        -0.00000000
   2        -0.00000000
   3         0.00000000
   4         0.00000000
   5        -0.00000000
   6        -0.00000000
   7        -0.00000000
   8         0.00000000
   9        -0.00000000
  10         0.00000000
  11        -0.00000000
  12         0.00000000
  13         0.00000000
  14         0.00000000
  15        -0.00000000
  16         0.00000000
  17        -0.08566772
  18         0.00000000
  19        -0.00000000
  20        -0.00000000
  21        -0.00000000
  22         0.68399523
  23        -0.00000000
  24         0.00000000
  25        -0.00000000
  26        -0.00000000
  27        -0.00086404
  28         0.00000000
  29         0.00000000
  30        -0.00000000
  31        -0.00000000
  32        -0.00000000
  33         0.00000000
  34        -0.00000000
  35         0.00000000
  36         0.00000000
  37        -0.00000000
  38        -0.00000000
  39        -0.00000000
  40         0.00000000
  41         0.00000000
  42         0.00000000
  43         0.00000000
  44         0.00000000
  45        -0.00000000
  46        -0.00000000
  47        -0.08566772
  48         0.00000000
  49        -0.00000000
  50        -0.00000000
  51         0.00000000
  52         0.68399523
  53        -0.00000000
  54         0.00000000
  55        -0.00000000
  56         0.00000000
  57         0.00086404
  58        -0.00000000
  59        -0.00000000
  60         0.00000000
Sym=    19a  
Ene=     4.4599
Spin= Alpha
Occup=    0.00000
   1        -0.00000000
   2        -0.00000000
   3         0.00000000
   4         0.00000000
   5        -0.00000000
   6        -0.00000000
   7         0.00000000
   8         0.00000000