   This run of MOLCAS is using the pymolcas driver

                             OPE
                             OPE          NMOL  CASOP  ENMOLC A   SO
                 OPE        NMOLC        AS  OP EN  MO LC     AS  OP
                OPENM       OL CA        SO  PE NM  OL CA     SOP EN
                OP EN      MO   LC       AS  OP ENMOL  CASO   PENMOL
                OP  EN     MO   LC       AS  OP EN     MO     LC ASO
               OP   E  NMOL  C  AS       OP  EN MO     LC     AS  OP
               OP  E   NMO   LC AS        OPEN  MO     LCASOP EN   M
               O  PEN   MO  LCA  SO
            OPE   NMO   L   CAS    OP
        OPENMOL  CASOP     ENMOL   CASOPE
     OPENMOLCA   SOPENMOLCASOPEN   MOLCASOPE
    OPENMOLCAS   OP           EN   MOL    CAS
    OPENMOLCAS       OP  ENM        O     LCA
    OPENMOLCAS    OPEN  MOLCASO     P  E  NMO
    OPENMOLCAS     OP               E  N  MOL
    OPENMOLCA   SO           PENM   O  L  CAS    OPEN    MO    LCAS
    OPENMOLCA   SOP           ENM   O  L  CAS   OP  EN  MOLC  AS   O
    OPENMOLCA   SOPE           NM      O  LCA   S      OP  EN MO
    OPENMOLC                AS         O  PEN   M      OL  CA  SOPE
    OPENMO        LCASOPE  NMOL        C  ASO   P      ENMOLC     AS
    OPE     NMO      LCA  SO     P     E   NM   OL  CA SO  PE N   MO
          OPENMOLCA            SOPE   NMO        LCAS  O    P  ENMO
     OPENMOLCASOPENMOLCASOPENMOLCASOPENMOLCA
        OPENMOLCASOPENMOLCASOPENMOLCASOPE
            OPENMOLCASOPENMOLCASOPENM
               OPENMOLCASOPENMOLCA        version: o822a959167d23c ?
                   OPENMOLCASO
                       OPE                tag:

 OpenMolcas is free software; you can redistribute it and/or modify it
 under the terms of the GNU Lesser General Public License version 2.1.
 OpenMolcas is distributed in the hope that it will be useful, but it
 is provided "as is" and without any express or implied warranties.
 For more details see the full text of the license in the file
 LICENSE or in <http://www.gnu.org/licenses/>.

                 Copyright (C) The OpenMolcas Authors
           For the author list and the recommended citation,
                   consult the file CONTRIBUTORS.md

           *************************************************
           * pymolcas version py2.28                       *
           *   build c4a6d18ded8cb6cad61d2372a9abd97c      *
           *   (after the EMIL interpreter by V. Veryazov) *
           *************************************************

configuration info
------------------
Host name: mgt (Linux)
C Compiler ID: GNU
C flags: -std=gnu99
Fortran Compiler ID: GNU
Fortran flags: -fno-aggressive-loop-optimizations -cpp -fdefault-integer-8 -fmax-stack-var-size=1048576
Definitions: _MOLCAS_;_I8_;_LINUX_
Parallel: OFF (GA=OFF)


   -------------------------------------------------------------------------------------------------------
  |
  |           Project: n2
  |    Submitted from: /public/home/xzzeng/work/HQC/N2/cc-pvtz/NO/PES/entropy/1.4/results/work_dir/n2/dmrg
  |      Scratch area: /public/home/xzzeng/work/HQC/N2/cc-pvtz/NO/PES/entropy/1.4/results/scratch
  |   Save outputs to: /public/home/xzzeng/work/HQC/N2/cc-pvtz/NO/PES/entropy/1.4/results/work_dir/n2/dmrg
  |            Molcas: /public/home/xzzeng/soft/OpenMolcas/build
  |
  | Scratch area is NOT empty
  |
  |    MOLCAS_DRIVER = /public/home/xzzeng/soft/OpenMolcas/build/pymolcas
  |    MOLCAS_NPROCS = 1
  |    MOLCAS_SOURCE = /public/home/xzzeng/soft/OpenMolcas
  | MOLCAS_STRUCTURE = 0
  |
   -------------------------------------------------------------------------------------------------------

++ ---------   Input file   ---------

&DMRGSCF
ActiveSpaceOptimizer = QCMaquis
DMRGSettings
  nsweeps = 5
  max_bond_dimension = 300
EndDMRGSettings
OOptimizationSettings
  SPIN    = 1
  NACTEL  = 10
  FILEORB = /public/home/xzzeng/work/HQC/N2/cc-pvtz/NO/PES/entropy/1.4/results/work_dir/n2/dmrg/n2.scf.h5_sel
  TYPEINDEX
  CIONLY
EndOOptimizationSettings

-- ----------------------------------

*** symbolic link created: INPORB -> n2.ScfOrb
--- Start Module: dmrgscf at Tue Apr  9 00:41:58 2024 ---

()()()()()()()()()()()()()()()()()()()()()()()()()()()()()()()()()()()()()()()()()()()()()()()()()()

                                              &DMRGSCF

                                   only a single process is used
                       available to each process: 12 GB of memory, 1 thread?
                                             pid: 60787
()()()()()()()()()()()()()()()()()()()()()()()()()()()()()()()()()()()()()()()()()()()()()()()()()()


      DMRGSCF: active space solver is set to qcmaquis
      -------                                --------


      Header of the ONEINT file:
      --------------------------
      
      Integrals generated by Gateway/Seward, Tue Apr  9 00:41:56 2024


      OrdInt status: non-squared


      Cartesian coordinates in Angstrom:
      -----------------------------------------------------
      No.  Label        X            Y            Z        
      -----------------------------------------------------
       1   N1         0.00000000   0.00000000   0.00000000
       2   N2         0.00000000   0.00000000   1.40000000
      -----------------------------------------------------
      Nuclear repulsion energy =   18.52120238

++    Wave function specifications:
      -----------------------------

      Number of closed shell electrons           4
      Number of electrons in active shells      10
      Max number of holes in RAS1 space          0
      Max nr of electrons in RAS3 space          0
      Number of inactive orbitals                2
      Number of active orbitals                  8
      Number of secondary orbitals              50
      Spin quantum number                      0.0
      State symmetry                             1
--

++    Orbital specifications:
      -----------------------

      Symmetry species                           1
                                                 a
      Frozen orbitals                            0
      Inactive orbitals                          2
      Active orbitals                            8
      RAS1 orbitals                              0
      RAS2 orbitals                              8
      RAS3 orbitals                              0
      Secondary orbitals                        50
      Deleted orbitals                           0
      Number of basis functions                 60
--

++    DMRG specifications:
      ----------------------------

      Number of renormalized states              300
      (Max) number of sweeps                     5
      Convergence threshold (sweep tolerance)    0.100E-07
      Jacobi-Davidson threshold                  0.100E-10
      SVD truncation threshold (initial)         1e-50
      SVD truncation threshold (final)           0.100E-10
      Number of root(s) required                 1
      Root chosen for geometry opt.              1
      DMRG root used                             1
         
--

++    Optimization specifications:
      ----------------------------

      RASSCF algorithm: LK Cholesky
      Maximum number of macro iterations       200
      Maximum number of SX iterations          100
      Threshold for RASSCF energy            1.000E-08
      Threshold for max MO rotation          1.000E-01
      Threshold for max BLB element          1.000E-04
      Level shift parameter                  5.000E-01
      Make Quasi-Newton update
--

      The MO-coefficients are taken from the file:
      /public/home/xzzeng/work/HQC/N2/cc-pvtz/NO/PES/entropy/1.4/results/work_dir/n2/dmrg/n2.scf.h5_sel                                                                                                                                                               

      Total molecular charge    0.00

      ************************************************************************************************************************
      *                                                                                                                      *
      *                                            Wave function control section                                             *
      *                                                                                                                      *
      ************************************************************************************************************************


                                         DMRGCI only, no orbital optimization will be done.
                                         --------------------------------------------------

                                             Please cite for the QCMaquis-Molcas driver:

                                    Freitag L.; Keller S.; Knecht S.; Lindh R.; Ma Y.; 
                                    Stein C. J. and Reiher M., in preparation. (2018).
                                    ---------------------------------------------------------------

                                             Please cite for the QCMaquis DMRG software:

                                    S. Keller, M. Dolfi, M. Troyer, M. Reiher,
                                    J. Chem. Phys. 143, 244118 (2015)
                                    ---------------------------------------------------------------



      DMRGCI energy              :    -108.9382331243
      Total time spent (hh:mm:ss):            0:00:04


      Natural orbitals and occupation numbers for root  1
      sym 1:   1.994463   1.989104   1.983262   1.868254   1.868254   0.139198   0.139198   0.018268

      ************************************************************************************************************************
      *                                                                                                                      *
      *                                                    Final results                                                     *
      *                                                                                                                      *
      ************************************************************************************************************************


++    Wave function specifications:
      -----------------------------

      Number of closed shell electrons           4
      Number of electrons in active shells      10
      Max number of holes in RAS1 space          0
      Max nr of electrons in RAS3 space          0
      Number of inactive orbitals                2
      Number of active orbitals                  8
      Number of secondary orbitals              50
      Spin quantum number                      0.0
      State symmetry                             1
--

++    Orbital specifications:
      -----------------------

      Symmetry species                           1
                                                 a
      Frozen orbitals                            0
      Inactive orbitals                          2
      Active orbitals                            8
      RAS1 orbitals                              0
      RAS2 orbitals                              8
      RAS3 orbitals                              0
      Secondary orbitals                        50
      Deleted orbitals                           0
      Number of basis functions                 60
--

++    DMRG specifications:
      ----------------------------

      Number of renormalized states              300
      (Max) number of sweeps                     5
      Convergence threshold (sweep tolerance)    0.100E-07
      Jacobi-Davidson threshold                  0.100E-10
      SVD truncation threshold (initial)         1e-50
      SVD truncation threshold (final)           0.100E-10
      Number of root(s) required                 1
      DMRG root used                             1
      highest root included in the DMRG          1
      Root passed to geometry opt.               1
--

++    Final optimization conditions:
      ------------------------------

      Average CI energy                            -108.93823312
--


      Final state energy(ies):
      ------------------------

::    RASSCF root number  1 Total energy:   -108.93823312

++    Molecular orbitals:
      -------------------

      Pseudonatural active orbitals and approximate occupation numbers




      Molecular orbitals for symmetry species 1: a  


      Orbital                 1         2         3         4         5         6         7         8         9        10
      Energy             0.0000    0.0000    0.0000    0.0000    0.0000    0.0000    0.0000    0.0000    0.0000    0.0000
      Occ. No.           0.0000    0.0000    0.0000    0.0000    0.0000    0.0000    0.0000    0.0000    0.0000    0.0000

     1 N1     1s         0.7062   -0.7082   -0.0053   -0.0047   -0.0027    0.0000    0.0000    0.0000   -0.0000    0.0038
     2 N1     2s         0.0009    0.0023    0.6464   -0.7131    0.2088   -0.0000    0.0000   -0.0000   -0.0000    0.4141
     3 N1     *s        -0.0009   -0.0002   -0.0010   -0.0060    0.0089   -0.0000   -0.0000   -0.0000    0.0000   -0.0203
     4 N1     *s        -0.0006   -0.0001   -0.0909   -0.0164    0.1219   -0.0000   -0.0000   -0.0000   -0.0000    2.0842
     5 N1     2px        0.0000   -0.0000    0.0000   -0.0000   -0.0000   -0.2953   -0.5313   -0.1957   -0.6464   -0.0000
     6 N1     *px       -0.0000    0.0000    0.0000   -0.0000    0.0000    0.0006    0.0010    0.0075    0.0248    0.0000
     7 N1     *px       -0.0000    0.0000    0.0000   -0.0000   -0.0000   -0.0122   -0.0219   -0.0734   -0.2426   -0.0000
     8 N1     2py        0.0000    0.0000   -0.0000   -0.0000    0.0000    0.5313   -0.2953   -0.6464    0.1957    0.0000
     9 N1     *py       -0.0000    0.0000    0.0000   -0.0000    0.0000   -0.0010    0.0006    0.0248   -0.0075    0.0000
    10 N1     *py        0.0000   -0.0000   -0.0000   -0.0000   -0.0000    0.0219   -0.0122   -0.2426    0.0734   -0.0000
    11 N1     2pz        0.0037   -0.0038    0.1956    0.2369   -0.6673    0.0000   -0.0000    0.0000   -0.0000    0.4181
    12 N1     *pz       -0.0022    0.0044   -0.0003   -0.0107    0.0107   -0.0000    0.0000   -0.0000   -0.0000    0.0512
    13 N1     *pz       -0.0009    0.0014   -0.0443   -0.0310    0.0485   -0.0000   -0.0000    0.0000   -0.0000    1.7304
    14 N1     *d2-      -0.0000   -0.0000   -0.0000    0.0000    0.0000   -0.0000   -0.0000   -0.0000   -0.0000   -0.0000
    15 N1     *d2-       0.0000   -0.0000   -0.0000    0.0000   -0.0000   -0.0000   -0.0000   -0.0000   -0.0000    0.0000
    16 N1     *d1-      -0.0000   -0.0000   -0.0000   -0.0000    0.0000    0.0088   -0.0049    0.0061   -0.0018    0.0000
    17 N1     *d1-       0.0000    0.0000    0.0000    0.0000    0.0000    0.0314   -0.0175    0.0089   -0.0027    0.0000
    18 N1     *d0        0.0002   -0.0000    0.0100    0.0035   -0.0116    0.0000   -0.0000    0.0000   -0.0000   -0.0277
    19 N1     *d0        0.0001    0.0010    0.0177    0.0046   -0.0228    0.0000    0.0000    0.0000   -0.0000    0.1348
    20 N1     *d1+       0.0000    0.0000    0.0000   -0.0000   -0.0000   -0.0049   -0.0088    0.0018    0.0061   -0.0000
    21 N1     *d1+      -0.0000   -0.0000    0.0000   -0.0000   -0.0000   -0.0175   -0.0314    0.0027    0.0089    0.0000
    22 N1     *d2+      -0.0000   -0.0000   -0.0000    0.0000    0.0000   -0.0000    0.0000    0.0000   -0.0000    0.0000
    23 N1     *d2+       0.0000    0.0000   -0.0000   -0.0000    0.0000   -0.0000    0.0000    0.0000   -0.0000   -0.0000
    24 N1     *f3-      -0.0000    0.0000    0.0000   -0.0000   -0.0000   -0.0000    0.0000   -0.0000    0.0000   -0.0000
    25 N1     *f2-       0.0000   -0.0000   -0.0000    0.0000    0.0000    0.0000    0.0000    0.0000    0.0000   -0.0000
    26 N1     *f1-       0.0000   -0.0000   -0.0000   -0.0000    0.0000    0.0048   -0.0027    0.0020   -0.0006   -0.0000
    27 N1     *f0       -0.0001    0.0002    0.0046   -0.0004   -0.0041    0.0000   -0.0000   -0.0000    0.0000    0.0147
    28 N1     *f1+       0.0000    0.0000    0.0000   -0.0000   -0.0000   -0.0027   -0.0048    0.0006    0.0020   -0.0000
    29 N1     *f2+      -0.0000   -0.0000   -0.0000   -0.0000   -0.0000    0.0000   -0.0000   -0.0000    0.0000   -0.0000
    30 N1     *f3+      -0.0000    0.0000    0.0000   -0.0000   -0.0000   -0.0000   -0.0000    0.0000    0.0000   -0.0000
    31 N2     1s         0.7091    0.7052   -0.0053    0.0047   -0.0027    0.0000   -0.0000    0.0000   -0.0000   -0.0038
    32 N2     2s         0.0010   -0.0023    0.6464    0.7131    0.2089   -0.0000   -0.0000   -0.0000    0.0000   -0.4141
    33 N2     *s        -0.0009    0.0002   -0.0011    0.0060    0.0089   -0.0000    0.0000   -0.0000    0.0000    0.0203
    34 N2     *s        -0.0006    0.0001   -0.0909    0.0164    0.1219   -0.0000    0.0000   -0.0000    0.0000   -2.0841
    35 N2     2px       -0.0000   -0.0000    0.0000   -0.0000   -0.0000   -0.2953   -0.5313    0.1957    0.6464    0.0000
    36 N2     *px        0.0000    0.0000    0.0000    0.0000   -0.0000    0.0006    0.0010   -0.0075   -0.0248    0.0000
    37 N2     *px        0.0000    0.0000   -0.0000    0.0000   -0.0000   -0.0122   -0.0219    0.0734    0.2426    0.0000
    38 N2     2py       -0.0000    0.0000   -0.0000   -0.0000    0.0000    0.5313   -0.2953    0.6464   -0.1957    0.0000
    39 N2     *py        0.0000    0.0000   -0.0000   -0.0000   -0.0000   -0.0010    0.0006   -0.0248    0.0075    0.0000
    40 N2     *py       -0.0000   -0.0000    0.0000   -0.0000    0.0000    0.0219   -0.0122    0.2426   -0.0734   -0.0000
    41 N2     2pz       -0.0037   -0.0038   -0.1956    0.2369    0.6673   -0.0000    0.0000   -0.0000    0.0000    0.4181
    42 N2     *pz        0.0022    0.0044    0.0003   -0.0107   -0.0107   -0.0000    0.0000    0.0000   -0.0000    0.0511
    43 N2     *pz        0.0009    0.0014    0.0443   -0.0310   -0.0485    0.0000   -0.0000   -0.0000   -0.0000    1.7306
    44 N2     *d2-       0.0000    0.0000    0.0000    0.0000    0.0000    0.0000    0.0000   -0.0000   -0.0000    0.0000
    45 N2     *d2-      -0.0000   -0.0000    0.0000    0.0000    0.0000    0.0000    0.0000   -0.0000   -0.0000   -0.0000
    46 N2     *d1-      -0.0000    0.0000    0.0000    0.0000   -0.0000   -0.0088    0.0049    0.0061   -0.0018   -0.0000
    47 N2     *d1-       0.0000   -0.0000    0.0000    0.0000   -0.0000   -0.0314    0.0175    0.0089   -0.0027   -0.0000
    48 N2     *d0        0.0002    0.0000    0.0100   -0.0035   -0.0116    0.0000   -0.0000    0.0000   -0.0000    0.0277
    49 N2     *d0        0.0001   -0.0010    0.0177   -0.0046   -0.0228    0.0000   -0.0000    0.0000   -0.0000   -0.1348
    50 N2     *d1+      -0.0000   -0.0000   -0.0000   -0.0000    0.0000    0.0049    0.0088    0.0018    0.0061    0.0000
    51 N2     *d1+      -0.0000    0.0000    0.0000    0.0000    0.0000    0.0175    0.0314    0.0027    0.0089   -0.0000
    52 N2     *d2+      -0.0000    0.0000   -0.0000   -0.0000    0.0000    0.0000   -0.0000    0.0000   -0.0000   -0.0000
    53 N2     *d2+       0.0000    0.0000    0.0000    0.0000    0.0000    0.0000   -0.0000    0.0000   -0.0000    0.0000
    54 N2     *f3-      -0.0000    0.0000    0.0000    0.0000   -0.0000   -0.0000    0.0000   -0.0000    0.0000   -0.0000
    55 N2     *f2-       0.0000    0.0000   -0.0000   -0.0000    0.0000    0.0000    0.0000   -0.0000   -0.0000   -0.0000
    56 N2     *f1-      -0.0000   -0.0000   -0.0000   -0.0000    0.0000    0.0048   -0.0027   -0.0020    0.0006   -0.0000
    57 N2     *f0        0.0001    0.0002   -0.0046   -0.0004    0.0041   -0.0000   -0.0000    0.0000   -0.0000    0.0147
    58 N2     *f1+      -0.0000    0.0000    0.0000    0.0000   -0.0000   -0.0027   -0.0048   -0.0006   -0.0020   -0.0000
    59 N2     *f2+       0.0000    0.0000   -0.0000    0.0000   -0.0000    0.0000   -0.0000    0.0000   -0.0000   -0.0000
    60 N2     *f3+      -0.0000   -0.0000   -0.0000    0.0000   -0.0000   -0.0000   -0.0000    0.0000    0.0000   -0.0000


      Orbital                11        12        13        14        15        16        17        18        19        20
      Energy             0.0000    0.0000    0.0000    0.0000    0.0000    0.0000    0.0000    0.0000    0.0000    0.0000
      Occ. No.           0.0000    0.0000    0.0000    0.0000    0.0000    0.0000    0.0000    0.0000    0.0000    0.0000

     1 N1     1s        -0.0587   -0.0000    0.0000    0.0264    0.3288   -0.0000   -0.0000   -0.4180    0.0000    0.0000
     2 N1     2s        -0.3900   -0.0000    0.0000    0.0168    1.5551   -0.0000   -0.0000   -1.9468    0.0000    0.0000
     3 N1     *s         0.0246    0.0000   -0.0000   -0.0576   -0.0917    0.0000    0.0000   -0.0407    0.0000    0.0000
     4 N1     *s         0.6684    0.0000   -0.0000    1.7733   -1.4715    0.0000    0.0000    6.4678   -0.0000   -0.0000
     5 N1     2px        0.0000   -0.3405   -0.2776    0.0000    0.0000    0.0806   -0.5003    0.0000   -0.0000   -0.0000
     6 N1     *px        0.0000   -0.2795   -0.2279    0.0000    0.0000    0.0560   -0.3479   -0.0000   -0.0000    0.0000
     7 N1     *px       -0.0000    0.6755    0.5508    0.0000   -0.0000   -0.2281    1.4163   -0.0000    0.0000   -0.0000
     8 N1     2py       -0.0000    0.2776   -0.3405    0.0000    0.0000    0.5003    0.0806    0.0000    0.0000   -0.0000
     9 N1     *py       -0.0000    0.2279   -0.2795    0.0000    0.0000    0.3479    0.0560    0.0000   -0.0000   -0.0000
    10 N1     *py        0.0000   -0.5508    0.6755   -0.0000   -0.0000   -1.4163   -0.2281   -0.0000    0.0000    0.0000
    11 N1     2pz        0.3109    0.0000   -0.0000   -0.8266   -0.0170    0.0000    0.0000   -0.2415    0.0000    0.0000
    12 N1     *pz        0.3719    0.0000   -0.0000   -0.0074    0.0876   -0.0000    0.0000    0.5260   -0.0000   -0.0000
    13 N1     *pz       -1.0839   -0.0000    0.0000    1.9626   -0.2587   -0.0000   -0.0000    2.8106   -0.0000   -0.0000
    14 N1     *d2-      -0.0000   -0.0000   -0.0000    0.0000   -0.0000    0.0000   -0.0000   -0.0000    0.0000   -0.0129
    15 N1     *d2-       0.0000    0.0000    0.0000   -0.0000   -0.0000    0.0000    0.0000    0.0000   -0.0000    0.6517
    16 N1     *d1-      -0.0000    0.0025   -0.0030   -0.0000    0.0000    0.0150    0.0024    0.0000   -0.0000    0.0000
    17 N1     *d1-      -0.0000    0.0538   -0.0660    0.0000   -0.0000   -0.0777   -0.0125   -0.0000    0.0000    0.0000
    18 N1     *d0        0.0269    0.0000   -0.0000   -0.0114    0.0087   -0.0000   -0.0000   -0.0232    0.0000    0.0000
    19 N1     *d0       -0.0207   -0.0000    0.0000    0.3560    0.1512   -0.0000   -0.0000    0.4498   -0.0000   -0.0000
    20 N1     *d1+       0.0000   -0.0030   -0.0025   -0.0000   -0.0000    0.0024   -0.0150    0.0000    0.0000    0.0000
    21 N1     *d1+       0.0000   -0.0660   -0.0538    0.0000    0.0000   -0.0125    0.0777   -0.0000    0.0000   -0.0000
    22 N1     *d2+      -0.0000   -0.0000    0.0000    0.0000   -0.0000   -0.0000   -0.0000    0.0000   -0.0129   -0.0000
    23 N1     *d2+      -0.0000    0.0000   -0.0000   -0.0000    0.0000    0.0000   -0.0000    0.0000    0.6517    0.0000
    24 N1     *f3-       0.0000   -0.0000    0.0000   -0.0000    0.0000    0.0000    0.0000   -0.0000    0.0000   -0.0000
    25 N1     *f2-       0.0000    0.0000    0.0000    0.0000    0.0000   -0.0000   -0.0000    0.0000   -0.0000    0.0131
    26 N1     *f1-      -0.0000    0.0017   -0.0021    0.0000   -0.0000   -0.0143   -0.0023    0.0000    0.0000   -0.0000
    27 N1     *f0       -0.0121   -0.0000    0.0000    0.0319    0.0002   -0.0000   -0.0000    0.0868   -0.0000   -0.0000
    28 N1     *f1+       0.0000   -0.0021   -0.0017    0.0000    0.0000   -0.0023    0.0143   -0.0000   -0.0000   -0.0000
    29 N1     *f2+      -0.0000    0.0000   -0.0000    0.0000    0.0000   -0.0000    0.0000    0.0000    0.0131    0.0000
    30 N1     *f3+       0.0000   -0.0000   -0.0000    0.0000   -0.0000   -0.0000    0.0000    0.0000   -0.0000   -0.0000
    31 N2     1s        -0.0587   -0.0000    0.0000   -0.0263    0.3287   -0.0000   -0.0000    0.4179   -0.0000   -0.0000
    32 N2     2s        -0.3897   -0.0000    0.0000   -0.0160    1.5549   -0.0000   -0.0000    1.9468   -0.0000   -0.0000
    33 N2     *s         0.0247    0.0000   -0.0000    0.0575   -0.0917    0.0000    0.0000    0.0408   -0.0000   -0.0000
    34 N2     *s         0.6664    0.0000   -0.0000   -1.7743   -1.4707    0.0000    0.0000   -6.4678    0.0000    0.0000
    35 N2     2px        0.0000   -0.3405   -0.2776    0.0000    0.0000   -0.0806    0.5003   -0.0000   -0.0000    0.0000
    36 N2     *px        0.0000   -0.2795   -0.2279    0.0000    0.0000   -0.0560    0.3479    0.0000   -0.0000   -0.0000
    37 N2     *px       -0.0000    0.6755    0.5508   -0.0000   -0.0000    0.2281   -1.4163    0.0000    0.0000   -0.0000
    38 N2     2py       -0.0000    0.2776   -0.3405    0.0000   -0.0000   -0.5003   -0.0806    0.0000   -0.0000   -0.0000
    39 N2     *py       -0.0000    0.2279   -0.2795    0.0000   -0.0000   -0.3479   -0.0560    0.0000    0.0000   -0.0000
    40 N2     *py        0.0000   -0.5508    0.6755    0.0000    0.0000    1.4163    0.2281   -0.0000    0.0000    0.0000
    41 N2     2pz       -0.3116   -0.0000    0.0000   -0.8264    0.0172   -0.0000    0.0000   -0.2414    0.0000    0.0000
    42 N2     *pz       -0.3718   -0.0000    0.0000   -0.0071   -0.0875    0.0000    0.0000    0.5260   -0.0000   -0.0000
    43 N2     *pz        1.0856    0.0000   -0.0000    1.9618    0.2581   -0.0000   -0.0000    2.8105   -0.0000   -0.0000
    44 N2     *d2-      -0.0000    0.0000    0.0000   -0.0000    0.0000    0.0000   -0.0000    0.0000    0.0000   -0.0129
    45 N2     *d2-      -0.0000   -0.0000   -0.0000    0.0000    0.0000   -0.0000    0.0000    0.0000   -0.0000    0.6517
    46 N2     *d1-       0.0000   -0.0025    0.0030    0.0000    0.0000    0.0150    0.0024   -0.0000   -0.0000   -0.0000
    47 N2     *d1-       0.0000   -0.0538    0.0660   -0.0000   -0.0000   -0.0777   -0.0125    0.0000   -0.0000   -0.0000
    48 N2     *d0        0.0269    0.0000   -0.0000    0.0113    0.0087   -0.0000   -0.0000    0.0232   -0.0000   -0.0000
    49 N2     *d0       -0.0211   -0.0000   -0.0000   -0.3559    0.1513   -0.0000   -0.0000   -0.4498    0.0000    0.0000
    50 N2     *d1+      -0.0000    0.0030    0.0025   -0.0000   -0.0000    0.0024   -0.0150   -0.0000   -0.0000    0.0000
    51 N2     *d1+      -0.0000    0.0660    0.0538   -0.0000   -0.0000   -0.0125    0.0777    0.0000   -0.0000    0.0000
    52 N2     *d2+       0.0000    0.0000   -0.0000   -0.0000   -0.0000   -0.0000   -0.0000   -0.0000   -0.0129   -0.0000
    53 N2     *d2+      -0.0000   -0.0000    0.0000    0.0000    0.0000    0.0000    0.0000    0.0000    0.6517    0.0000
    54 N2     *f3-       0.0000   -0.0000    0.0000    0.0000    0.0000    0.0000    0.0000    0.0000   -0.0000   -0.0000
    55 N2     *f2-       0.0000   -0.0000    0.0000   -0.0000    0.0000    0.0000    0.0000   -0.0000    0.0000   -0.0131
    56 N2     *f1-      -0.0000    0.0017   -0.0021    0.0000    0.0000    0.0143    0.0023   -0.0000   -0.0000   -0.0000
    57 N2     *f0        0.0121    0.0000   -0.0000    0.0319   -0.0002    0.0000   -0.0000    0.0868   -0.0000   -0.0000
    58 N2     *f1+       0.0000   -0.0021   -0.0017    0.0000   -0.0000    0.0023   -0.0143   -0.0000   -0.0000    0.0000
    59 N2     *f2+       0.0000    0.0000    0.0000    0.0000    0.0000    0.0000   -0.0000   -0.0000   -0.0131   -0.0000
    60 N2     *f3+      -0.0000   -0.0000   -0.0000   -0.0000    0.0000   -0.0000    0.0000    0.0000   -0.0000    0.0000


      Orbital                21        22        23        24        25        26        27        28        29        30
      Energy             0.0000    0.0000    0.0000    0.0000    0.0000    0.0000    0.0000    0.0000    0.0000    0.0000
      Occ. No.           0.0000    0.0000    0.0000    0.0000    0.0000    0.0000    0.0000    0.0000    0.0000    0.0000

     1 N1     1s         0.0000   -0.0000    0.0000   -0.0000   -0.2811   -0.0000    0.0000   -0.0030   -0.0000    0.0000
     2 N1     2s         0.0000   -0.0000    0.0000   -0.0000   -1.2192   -0.0000    0.0000    0.0993   -0.0000    0.0000
     3 N1     *s         0.0000   -0.0000    0.0000    0.0000    0.0077    0.0000    0.0000   -0.1310    0.0000   -0.0000
     4 N1     *s        -0.0000    0.0000   -0.0000    0.0000    0.8343    0.0000   -0.0000    4.8271    0.0000   -0.0000
     5 N1     2px        0.1650    0.1580    0.0000    0.0000   -0.0000   -0.0028   -0.2475   -0.0000   -2.3928   -0.0068
     6 N1     *px        0.0554    0.0531    0.0000   -0.0000    0.0000    0.0008    0.0664    0.0000    2.1746    0.0062
     7 N1     *px       -0.0833   -0.0798   -0.0000   -0.0000   -0.0000   -0.0067   -0.5848   -0.0000    0.4480    0.0013
     8 N1     2py        0.1580   -0.1650   -0.0000    0.0000   -0.0000    0.2475   -0.0028    0.0000    0.0068   -2.3928
     9 N1     *py        0.0531   -0.0554    0.0000    0.0000    0.0000   -0.0664    0.0008   -0.0000   -0.0062    2.1746
    10 N1     *py       -0.0798    0.0833    0.0000   -0.0000   -0.0000    0.5848   -0.0067    0.0000   -0.0013    0.4480
    11 N1     2pz        0.0000   -0.0000    0.0000    0.0000    0.0565    0.0000   -0.0000    0.6189   -0.0000    0.0000
    12 N1     *pz       -0.0000    0.0000    0.0000   -0.0000   -0.5704   -0.0000   -0.0000    0.6919    0.0000   -0.0000
    13 N1     *pz       -0.0000    0.0000   -0.0000    0.0000    0.6538    0.0000   -0.0000    2.4212    0.0000   -0.0000
    14 N1     *d2-       0.0000    0.0000   -0.0000    0.0125    0.0000    0.0000   -0.0000    0.0000   -0.0000    0.0000
    15 N1     *d2-       0.0000    0.0000    0.0000   -0.7931    0.0000   -0.0000    0.0000   -0.0000   -0.0000   -0.0000
    16 N1     *d1-      -0.0054    0.0057    0.0000   -0.0000    0.0000   -0.0257    0.0003    0.0000   -0.0001    0.0240
    17 N1     *d1-      -0.4122    0.4304    0.0000   -0.0000   -0.0000    1.1986   -0.0137    0.0000    0.0003   -0.0924
    18 N1     *d0        0.0000   -0.0000    0.0000   -0.0000    0.0055    0.0000    0.0000   -0.0398    0.0000    0.0000
    19 N1     *d0       -0.0000    0.0000    0.0000    0.0000    0.8682    0.0000   -0.0000    1.6388   -0.0000   -0.0000
    20 N1     *d1+      -0.0057   -0.0054   -0.0000   -0.0000    0.0000    0.0003    0.0257    0.0000    0.0240    0.0001
    21 N1     *d1+      -0.4304   -0.4122   -0.0000   -0.0000   -0.0000   -0.0137   -1.1986   -0.0000   -0.0924   -0.0003
    22 N1     *d2+      -0.0000    0.0000    0.0125    0.0000    0.0000   -0.0000   -0.0000    0.0000    0.0000    0.0000
    23 N1     *d2+      -0.0000    0.0000   -0.7931   -0.0000    0.0000    0.0000    0.0000    0.0000   -0.0000    0.0000
    24 N1     *f3-       0.0000   -0.0000   -0.0000    0.0000   -0.0000   -0.0000    0.0000   -0.0000    0.0000   -0.0000
    25 N1     *f2-      -0.0000   -0.0000   -0.0000    0.0106   -0.0000   -0.0000   -0.0000    0.0000   -0.0000    0.0000
    26 N1     *f1-       0.0089   -0.0093   -0.0000   -0.0000    0.0000    0.0042   -0.0000    0.0000   -0.0002    0.0600
    27 N1     *f0        0.0000   -0.0000   -0.0000    0.0000   -0.0261   -0.0000   -0.0000    0.0788   -0.0000   -0.0000
    28 N1     *f1+       0.0093    0.0089   -0.0000    0.0000   -0.0000   -0.0000   -0.0042   -0.0000    0.0600    0.0002
    29 N1     *f2+       0.0000   -0.0000    0.0106    0.0000   -0.0000   -0.0000    0.0000   -0.0000    0.0000    0.0000
    30 N1     *f3+      -0.0000   -0.0000    0.0000    0.0000    0.0000   -0.0000   -0.0000   -0.0000    0.0000    0.0000
    31 N2     1s        -0.0000    0.0000   -0.0000   -0.0000   -0.2811   -0.0000    0.0000    0.0029   -0.0000   -0.0000
    32 N2     2s        -0.0000    0.0000   -0.0000   -0.0000   -1.2190   -0.0000    0.0000   -0.0996    0.0000   -0.0000
    33 N2     *s        -0.0000    0.0000   -0.0000   -0.0000    0.0075    0.0000   -0.0000    0.1309   -0.0000    0.0000
    34 N2     *s         0.0000   -0.0000    0.0000    0.0000    0.8356    0.0000    0.0000   -4.8268    0.0000    0.0000
    35 N2     2px        0.1650    0.1580    0.0000    0.0000    0.0000    0.0028    0.2475    0.0000   -2.3932   -0.0068
    36 N2     *px        0.0554    0.0531   -0.0000   -0.0000    0.0000   -0.0008   -0.0665    0.0000    2.1750    0.0062
    37 N2     *px       -0.0833   -0.0798    0.0000   -0.0000    0.0000    0.0067    0.5848    0.0000    0.4480    0.0013
    38 N2     2py        0.1580   -0.1650   -0.0000    0.0000    0.0000   -0.2475    0.0028    0.0000    0.0068   -2.3932
    39 N2     *py        0.0531   -0.0554    0.0000   -0.0000   -0.0000    0.0665   -0.0008   -0.0000   -0.0062    2.1750
    40 N2     *py       -0.0798    0.0833    0.0000    0.0000    0.0000   -0.5848    0.0067   -0.0000   -0.0013    0.4480
    41 N2     2pz        0.0000   -0.0000    0.0000   -0.0000   -0.0566   -0.0000   -0.0000    0.6189    0.0000    0.0000
    42 N2     *pz       -0.0000    0.0000    0.0000    0.0000    0.5702    0.0000   -0.0000    0.6920   -0.0000   -0.0000
    43 N2     *pz       -0.0000    0.0000   -0.0000    0.0000   -0.6545   -0.0000   -0.0000    2.4210   -0.0000   -0.0000
    44 N2     *d2-      -0.0000    0.0000    0.0000   -0.0125   -0.0000   -0.0000   -0.0000    0.0000    0.0000   -0.0000
    45 N2     *d2-      -0.0000   -0.0000   -0.0000    0.7932   -0.0000    0.0000    0.0000    0.0000    0.0000    0.0000
    46 N2     *d1-       0.0054   -0.0057   -0.0000   -0.0000    0.0000   -0.0257    0.0003   -0.0000    0.0001   -0.0240
    47 N2     *d1-       0.4123   -0.4304   -0.0000   -0.0000   -0.0000    1.1986   -0.0137    0.0000   -0.0003    0.0924
    48 N2     *d0        0.0000   -0.0000    0.0000   -0.0000    0.0055    0.0000   -0.0000    0.0398    0.0000   -0.0000
    49 N2     *d0        0.0000   -0.0000   -0.0000    0.0000    0.8687    0.0000    0.0000   -1.6385   -0.0000    0.0000
    50 N2     *d1+       0.0057    0.0054   -0.0000    0.0000    0.0000    0.0003    0.0257    0.0000   -0.0240   -0.0001
    51 N2     *d1+       0.4304    0.4123   -0.0000    0.0000   -0.0000   -0.0137   -1.1986   -0.0000    0.0924    0.0003
    52 N2     *d2+      -0.0000   -0.0000   -0.0125   -0.0000    0.0000   -0.0000    0.0000   -0.0000   -0.0000   -0.0000
    53 N2     *d2+       0.0000   -0.0000    0.7931    0.0000   -0.0000    0.0000   -0.0000   -0.0000    0.0000   -0.0000
    54 N2     *f3-      -0.0000    0.0000   -0.0000   -0.0000   -0.0000   -0.0000    0.0000    0.0000    0.0000   -0.0000
    55 N2     *f2-      -0.0000   -0.0000   -0.0000    0.0106    0.0000    0.0000    0.0000   -0.0000   -0.0000   -0.0000
    56 N2     *f1-       0.0089   -0.0093   -0.0000   -0.0000   -0.0000   -0.0042    0.0000    0.0000   -0.0002    0.0600
    57 N2     *f0        0.0000   -0.0000   -0.0000   -0.0000    0.0260    0.0000   -0.0000    0.0788    0.0000   -0.0000
    58 N2     *f1+       0.0093    0.0089   -0.0000    0.0000   -0.0000    0.0000    0.0042   -0.0000    0.0600    0.0002
    59 N2     *f2+       0.0000   -0.0000    0.0106    0.0000    0.0000    0.0000   -0.0000   -0.0000   -0.0000    0.0000
    60 N2     *f3+       0.0000    0.0000   -0.0000    0.0000    0.0000   -0.0000   -0.0000    0.0000    0.0000    0.0000


      Orbital                31        32        33        34        35        36        37        38        39        40
      Energy             0.0000    0.0000    0.0000    0.0000    0.0000    0.0000    0.0000    0.0000    0.0000    0.0000
      Occ. No.           0.0000    0.0000    0.0000    0.0000    0.0000    0.0000    0.0000    0.0000    0.0000    0.0000

     1 N1     1s         0.0113    0.0000   -0.0000    0.0000    0.0000    0.0000   -0.0000   -0.2616    0.0868    0.0000
     2 N1     2s         0.0116    0.0000   -0.0000    0.0000    0.0000    0.0000   -0.0000   -0.4753    0.2585    0.0000
     3 N1     *s         0.0092   -0.0000    0.0000   -0.0000   -0.0000   -0.0000    0.0000    0.2825   -0.1286   -0.0000
     4 N1     *s         0.0578   -0.0000    0.0000   -0.0000   -0.0000   -0.0000   -0.0000    3.0830   -0.1962   -0.0000
     5 N1     2px        0.0000    0.0600   -2.3794   -0.0000    0.0000    0.3388    0.0052    0.0000    0.0000    0.0000
     6 N1     *px       -0.0000   -0.0572    2.2668    0.0000   -0.0000   -0.3903   -0.0060   -0.0000   -0.0000   -0.0000
     7 N1     *px       -0.0000   -0.0075    0.2964    0.0000    0.0000   -0.0049   -0.0001   -0.0000    0.0000    0.0000
     8 N1     2py        0.0000   -2.3794   -0.0600   -0.0000   -0.0000   -0.0052    0.3388   -0.0000   -0.0000    0.0000
     9 N1     *py       -0.0000    2.2668    0.0572    0.0000    0.0000    0.0060   -0.3903    0.0000   -0.0000   -0.0000
    10 N1     *py       -0.0000    0.2964    0.0075   -0.0000    0.0000    0.0001   -0.0049    0.0000   -0.0000    0.0000
    11 N1     2pz       -2.3317   -0.0000   -0.0000    0.0000    0.0000    0.0000   -0.0000   -2.2702    0.5589    0.0000
    12 N1     *pz        2.1011    0.0000    0.0000   -0.0000   -0.0000   -0.0000    0.0000    2.9310   -0.4228   -0.0000
    13 N1     *pz        0.2977    0.0000    0.0000   -0.0000   -0.0000   -0.0000   -0.0000    1.8573   -0.1291   -0.0000
    14 N1     *d2-       0.0000    0.0000   -0.0000   -0.0000   -0.0070   -0.0000    0.0000   -0.0000    0.0000    0.0000
    15 N1     *d2-       0.0000    0.0000   -0.0000    0.0000    0.0849    0.0000    0.0000    0.0000   -0.0000   -0.0000
    16 N1     *d1-      -0.0000   -0.0003   -0.0000    0.0000   -0.0000   -0.0043    0.2792   -0.0000    0.0000    0.0000
    17 N1     *d1-      -0.0000    0.1263    0.0032   -0.0000    0.0000    0.0030   -0.1923   -0.0000   -0.0000   -0.0000
    18 N1     *d0        0.0252    0.0000    0.0000    0.0000    0.0000    0.0000    0.0000   -0.0083   -0.4900   -0.0000
    19 N1     *d0       -0.0700   -0.0000    0.0000   -0.0000   -0.0000   -0.0000   -0.0000    0.8424    0.2909   -0.0000
    20 N1     *d1+      -0.0000    0.0000   -0.0003   -0.0000   -0.0000    0.2792    0.0043    0.0000   -0.0000    0.0000
    21 N1     *d1+      -0.0000   -0.0032    0.1263    0.0000    0.0000   -0.1923   -0.0030   -0.0000    0.0000   -0.0000
    22 N1     *d2+       0.0000    0.0000    0.0000   -0.0070    0.0000    0.0000    0.0000    0.0000   -0.0000    0.0000
    23 N1     *d2+      -0.0000    0.0000    0.0000    0.0849   -0.0000    0.0000   -0.0000   -0.0000    0.0000   -0.0000
    24 N1     *f3-       0.0000    0.0000    0.0000    0.0000   -0.0000    0.0000   -0.0000   -0.0000   -0.0000    0.6956
    25 N1     *f2-      -0.0000   -0.0000   -0.0000   -0.0000   -0.6645    0.0000   -0.0000   -0.0000   -0.0000   -0.0000
    26 N1     *f1-       0.0000   -0.1284   -0.0032   -0.0000   -0.0000   -0.0091    0.5894   -0.0000   -0.0000    0.0000
    27 N1     *f0       -0.1994   -0.0000   -0.0000    0.0000    0.0000    0.0000   -0.0000   -0.2393   -0.4548   -0.0000
    28 N1     *f1+       0.0000    0.0032   -0.1284   -0.0000    0.0000    0.5894    0.0091    0.0000    0.0000    0.0000
    29 N1     *f2+       0.0000    0.0000   -0.0000   -0.6645    0.0000   -0.0000   -0.0000   -0.0000   -0.0000   -0.0000
    30 N1     *f3+       0.0000    0.0000   -0.0000   -0.0000   -0.0000    0.0000    0.0000    0.0000    0.0000   -0.0739
    31 N2     1s         0.0113    0.0000    0.0000   -0.0000   -0.0000   -0.0000    0.0000    0.2614    0.0869    0.0000
    32 N2     2s         0.0116    0.0000    0.0000   -0.0000   -0.0000   -0.0000    0.0000    0.4748    0.2586    0.0000
    33 N2     *s         0.0092   -0.0000   -0.0000    0.0000    0.0000    0.0000   -0.0000   -0.2822   -0.1286   -0.0000
    34 N2     *s         0.0579   -0.0000   -0.0000    0.0000    0.0000    0.0000    0.0000   -3.0827   -0.1973   -0.0000
    35 N2     2px        0.0000   -0.0600    2.3790   -0.0000   -0.0000    0.3388    0.0052   -0.0000   -0.0000    0.0000
    36 N2     *px       -0.0000    0.0572   -2.2664    0.0000   -0.0000   -0.3903   -0.0060    0.0000   -0.0000   -0.0000
    37 N2     *px       -0.0000    0.0075   -0.2964    0.0000   -0.0000   -0.0049   -0.0001    0.0000    0.0000   -0.0000
    38 N2     2py       -0.0000    2.3790    0.0600    0.0000   -0.0000   -0.0052    0.3388   -0.0000    0.0000    0.0000
    39 N2     *py        0.0000   -2.2664   -0.0572    0.0000    0.0000    0.0060   -0.3903    0.0000    0.0000   -0.0000
    40 N2     *py        0.0000   -0.2964   -0.0075    0.0000    0.0000    0.0001   -0.0049    0.0000    0.0000   -0.0000
    41 N2     2pz        2.3317    0.0000    0.0000    0.0000    0.0000    0.0000   -0.0000   -2.2700   -0.5598    0.0000
    42 N2     *pz       -2.1012   -0.0000   -0.0000   -0.0000   -0.0000   -0.0000    0.0000    2.9308    0.4239   -0.0000
    43 N2     *pz       -0.2977   -0.0000    0.0000   -0.0000   -0.0000   -0.0000   -0.0000    1.8572    0.1298   -0.0000
    44 N2     *d2-      -0.0000    0.0000   -0.0000   -0.0000   -0.0070    0.0000    0.0000    0.0000    0.0000   -0.0000
    45 N2     *d2-       0.0000   -0.0000   -0.0000    0.0000    0.0849   -0.0000    0.0000    0.0000   -0.0000    0.0000
    46 N2     *d1-      -0.0000   -0.0003   -0.0000    0.0000    0.0000    0.0043   -0.2792    0.0000    0.0000   -0.0000
    47 N2     *d1-      -0.0000    0.1263    0.0032   -0.0000   -0.0000   -0.0030    0.1923    0.0000   -0.0000    0.0000
    48 N2     *d0        0.0252    0.0000    0.0000    0.0000    0.0000    0.0000   -0.0000    0.0085   -0.4900   -0.0000
    49 N2     *d0       -0.0700    0.0000   -0.0000    0.0000    0.0000    0.0000    0.0000   -0.8425    0.2906    0.0000
    50 N2     *d1+       0.0000    0.0000   -0.0003    0.0000   -0.0000   -0.2792   -0.0043   -0.0000   -0.0000   -0.0000
    51 N2     *d1+      -0.0000   -0.0032    0.1263   -0.0000    0.0000    0.1923    0.0030    0.0000    0.0000    0.0000
    52 N2     *d2+       0.0000    0.0000    0.0000   -0.0070    0.0000    0.0000   -0.0000   -0.0000   -0.0000   -0.0000
    53 N2     *d2+      -0.0000    0.0000   -0.0000    0.0849   -0.0000    0.0000    0.0000    0.0000    0.0000    0.0000
    54 N2     *f3-       0.0000   -0.0000   -0.0000   -0.0000   -0.0000    0.0000   -0.0000    0.0000   -0.0000    0.6956
    55 N2     *f2-      -0.0000    0.0000    0.0000    0.0000    0.6645   -0.0000    0.0000    0.0000    0.0000    0.0000
    56 N2     *f1-      -0.0000    0.1285    0.0032   -0.0000   -0.0000   -0.0091    0.5893   -0.0000    0.0000    0.0000
    57 N2     *f0        0.1994    0.0000    0.0000    0.0000    0.0000   -0.0000   -0.0000   -0.2395    0.4547    0.0000
    58 N2     *f1+      -0.0000   -0.0032    0.1285   -0.0000    0.0000    0.5893    0.0091    0.0000    0.0000    0.0000
    59 N2     *f2+      -0.0000   -0.0000    0.0000    0.6645   -0.0000    0.0000    0.0000    0.0000    0.0000    0.0000
    60 N2     *f3+      -0.0000   -0.0000    0.0000   -0.0000    0.0000    0.0000    0.0000   -0.0000    0.0000   -0.0739


      Orbital                41        42        43        44        45        46        47        48        49        50
      Energy             0.0000    0.0000    0.0000    0.0000    0.0000    0.0000    0.0000    0.0000    0.0000    0.0000
      Occ. No.           0.0000    0.0000    0.0000    0.0000    0.0000    0.0000    0.0000    0.0000    0.0000    0.0000

     1 N1     1s        -0.0000    0.0000   -0.0000    0.0000   -0.0000   -0.0000    0.0000   -0.2864   -0.0000   -0.0000
     2 N1     2s        -0.0000    0.0000   -0.0000    0.0000   -0.0000   -0.0000    0.0000   -0.3392   -0.0000   -0.0000
     3 N1     *s         0.0000   -0.0000    0.0000   -0.0000    0.0000    0.0000   -0.0000    0.3923    0.0000    0.0000
     4 N1     *s         0.0000   -0.0000   -0.0000   -0.0000    0.0000    0.0000   -0.0000    4.1535    0.0000    0.0000
     5 N1     2px       -0.0000    0.0000    0.0000   -0.0000    0.0000   -0.0000    0.0000    0.0000    0.0000   -0.0000
     6 N1     *px        0.0000   -0.0000   -0.0000    0.0000   -0.0000    0.0000    0.0000   -0.0000    0.0000    0.0000
     7 N1     *px       -0.0000   -0.0000   -0.0000    0.0000   -0.0000    0.0000    0.0000   -0.0000   -0.0000    0.0000
     8 N1     2py        0.0000    0.0000   -0.0000    0.0000    0.0000    0.0000    0.0000   -0.0000   -0.0000   -0.0000
     9 N1     *py       -0.0000   -0.0000    0.0000   -0.0000   -0.0000    0.0000   -0.0000    0.0000    0.0000   -0.0000
    10 N1     *py        0.0000   -0.0000    0.0000   -0.0000   -0.0000    0.0000   -0.0000    0.0000    0.0000    0.0000
    11 N1     2pz       -0.0000   -0.0000    0.0000   -0.0000   -0.0000   -0.0000    0.0000   -1.0365   -0.0000   -0.0000
    12 N1     *pz       -0.0000    0.0000   -0.0000    0.0000    0.0000    0.0000   -0.0000    2.2345    0.0000    0.0000
    13 N1     *pz       -0.0000   -0.0000   -0.0000   -0.0000    0.0000    0.0000   -0.0000    2.2028    0.0000    0.0000
    14 N1     *d2-      -0.0000    0.0000    0.0000    0.4584   -0.0000    0.8224   -0.0000   -0.0000   -0.7035    0.0000
    15 N1     *d2-       0.0000   -0.0000   -0.0000   -0.1615    0.0000   -0.3774    0.0000    0.0000    0.4852   -0.0000
    16 N1     *d1-       0.0000   -0.0000    0.0000   -0.0000   -0.0000   -0.0000    0.0000   -0.0000   -0.0000   -0.0000
    17 N1     *d1-      -0.0000    0.0000   -0.0000    0.0000    0.0000    0.0000   -0.0000    0.0000    0.0000    0.0000
    18 N1     *d0        0.0000    0.0000   -0.0000    0.0000   -0.0000   -0.0000    0.0000   -0.4915    0.0000   -0.0000
    19 N1     *d0       -0.0000   -0.0000   -0.0000   -0.0000    0.0000    0.0000   -0.0000    1.4413    0.0000    0.0000
    20 N1     *d1+      -0.0000   -0.0000   -0.0000    0.0000   -0.0000   -0.0000   -0.0000    0.0000    0.0000   -0.0000
    21 N1     *d1+       0.0000    0.0000    0.0000   -0.0000    0.0000    0.0000    0.0000   -0.0000   -0.0000    0.0000
    22 N1     *d2+       0.0000    0.0000   -0.0000    0.0000    0.4581    0.0000    0.8224    0.0000   -0.0000   -0.7037
    23 N1     *d2+      -0.0000   -0.0000    0.0000   -0.0000   -0.1613   -0.0000   -0.3774   -0.0000    0.0000    0.4853
    24 N1     *f3-       0.0739    0.2579   -0.6668    0.0000   -0.0000    0.0000   -0.0000    0.0000   -0.0000    0.0000
    25 N1     *f2-       0.0000    0.0000    0.0000    0.6245   -0.0000    0.0142   -0.0000   -0.0000    0.4580   -0.0000
    26 N1     *f1-       0.0000   -0.0000    0.0000    0.0000    0.0000   -0.0000    0.0000    0.0000   -0.0000    0.0000
    27 N1     *f0        0.0000   -0.0000   -0.0000   -0.0000    0.0000    0.0000   -0.0000    0.6983    0.0000    0.0000
    28 N1     *f1+      -0.0000   -0.0000   -0.0000   -0.0000    0.0000   -0.0000   -0.0000    0.0000   -0.0000   -0.0000
    29 N1     *f2+      -0.0000    0.0000   -0.0000    0.0000    0.6245    0.0000    0.0144   -0.0000    0.0000    0.4580
    30 N1     *f3+       0.6956   -0.6668   -0.2579    0.0000    0.0000    0.0000    0.0000   -0.0000   -0.0000   -0.0000
    31 N2     1s         0.0000   -0.0000    0.0000   -0.0000    0.0000    0.0000   -0.0000    0.2860    0.0000    0.0000
    32 N2     2s         0.0000   -0.0000    0.0000   -0.0000    0.0000    0.0000   -0.0000    0.3383    0.0000    0.0000
    33 N2     *s        -0.0000    0.0000   -0.0000    0.0000   -0.0000   -0.0000    0.0000   -0.3917   -0.0000   -0.0000
    34 N2     *s        -0.0000    0.0000    0.0000    0.0000   -0.0000   -0.0000    0.0000   -4.1529   -0.0000   -0.0000
    35 N2     2px       -0.0000   -0.0000   -0.0000   -0.0000    0.0000    0.0000   -0.0000    0.0000    0.0000   -0.0000
    36 N2     *px        0.0000    0.0000    0.0000    0.0000   -0.0000   -0.0000    0.0000   -0.0000    0.0000    0.0000
    37 N2     *px        0.0000    0.0000    0.0000    0.0000    0.0000   -0.0000   -0.0000    0.0000   -0.0000   -0.0000
    38 N2     2py        0.0000   -0.0000    0.0000    0.0000    0.0000   -0.0000   -0.0000   -0.0000   -0.0000   -0.0000
    39 N2     *py       -0.0000    0.0000   -0.0000   -0.0000   -0.0000    0.0000    0.0000    0.0000    0.0000   -0.0000
    40 N2     *py       -0.0000    0.0000   -0.0000    0.0000   -0.0000   -0.0000    0.0000    0.0000   -0.0000    0.0000
    41 N2     2pz        0.0000   -0.0000    0.0000    0.0000   -0.0000   -0.0000    0.0000   -1.0366   -0.0000   -0.0000
    42 N2     *pz       -0.0000   -0.0000   -0.0000   -0.0000    0.0000    0.0000   -0.0000    2.2345    0.0000    0.0000
    43 N2     *pz       -0.0000   -0.0000   -0.0000   -0.0000    0.0000    0.0000   -0.0000    2.2027    0.0000    0.0000
    44 N2     *d2-       0.0000    0.0000    0.0000   -0.4584    0.0000    0.8224   -0.0000   -0.0000    0.7035   -0.0000
    45 N2     *d2-      -0.0000   -0.0000   -0.0000    0.1615   -0.0000   -0.3774    0.0000    0.0000   -0.4852    0.0000
    46 N2     *d1-      -0.0000    0.0000   -0.0000    0.0000    0.0000   -0.0000    0.0000    0.0000   -0.0000    0.0000
    47 N2     *d1-       0.0000   -0.0000    0.0000   -0.0000   -0.0000    0.0000   -0.0000   -0.0000    0.0000   -0.0000
    48 N2     *d0        0.0000   -0.0000   -0.0000    0.0000    0.0000    0.0000   -0.0000    0.4915    0.0000    0.0000
    49 N2     *d0        0.0000    0.0000    0.0000   -0.0000   -0.0000   -0.0000    0.0000   -1.4413   -0.0000   -0.0000
    50 N2     *d1+       0.0000    0.0000    0.0000   -0.0000    0.0000   -0.0000   -0.0000   -0.0000   -0.0000   -0.0000
    51 N2     *d1+      -0.0000   -0.0000   -0.0000    0.0000   -0.0000    0.0000    0.0000    0.0000    0.0000    0.0000
    52 N2     *d2+      -0.0000    0.0000   -0.0000   -0.0000   -0.4586    0.0000    0.8224   -0.0000    0.0000    0.7034
    53 N2     *d2+       0.0000   -0.0000    0.0000    0.0000    0.1616   -0.0000   -0.3775    0.0000   -0.0000   -0.4851
    54 N2     *f3-       0.0739   -0.2579    0.6668    0.0000   -0.0000   -0.0000    0.0000   -0.0000    0.0000    0.0000
    55 N2     *f2-      -0.0000   -0.0000   -0.0000    0.6245   -0.0000   -0.0141    0.0000    0.0000    0.4580   -0.0000
    56 N2     *f1-       0.0000   -0.0000    0.0000    0.0000    0.0000   -0.0000   -0.0000    0.0000   -0.0000    0.0000
    57 N2     *f0       -0.0000   -0.0000   -0.0000   -0.0000    0.0000    0.0000   -0.0000    0.6984    0.0000    0.0000
    58 N2     *f1+      -0.0000   -0.0000   -0.0000   -0.0000    0.0000    0.0000   -0.0000   -0.0000   -0.0000   -0.0000
    59 N2     *f2+       0.0000   -0.0000    0.0000    0.0000    0.6245   -0.0000   -0.0138   -0.0000    0.0000    0.4580
    60 N2     *f3+       0.6956    0.6668    0.2579    0.0000    0.0000   -0.0000   -0.0000    0.0000   -0.0000    0.0000


      Orbital                51        52        53        54        55        56        57        58        59        60
      Energy             0.0000    0.0000    0.0000    0.0000    0.0000    0.0000    0.0000    0.0000    0.0000    0.0000
      Occ. No.           0.0000    0.0000    0.0000    0.0000    0.0000    0.0000    0.0000    0.0000    0.0000    0.0000

     1 N1     1s         0.0000    0.0000   -0.0000    0.0000   -0.7326   -1.2463   -0.0000   -0.0000    1.2139    2.1631
     2 N1     2s         0.0000    0.0000   -0.0000    0.0000   -1.5275   -2.5361   -0.0000   -0.0000    3.0458    5.5453
     3 N1     *s        -0.0000   -0.0000    0.0000   -0.0000    1.0164    1.8743    0.0000    0.0000   -1.4062   -2.8661
     4 N1     *s         0.0000   -0.0000    0.0000   -0.0000    1.3538    1.5036    0.0000    0.0000   -1.9069   -1.1047
     5 N1     2px        0.0012    0.0000    0.0677    0.0236    0.0000    0.0000    0.0218   -0.7187   -0.0000   -0.0000
     6 N1     *px       -0.0661   -0.0020   -0.1472   -0.0512   -0.0000   -0.0000   -0.0288    0.9490    0.0000    0.0000
     7 N1     *px       -0.2891   -0.0088   -0.0050   -0.0018    0.0000   -0.0000   -0.0136    0.4485    0.0000   -0.0000
     8 N1     2py       -0.0000    0.0012    0.0236   -0.0677   -0.0000   -0.0000    0.7187    0.0218    0.0000    0.0000
     9 N1     *py        0.0020   -0.0661   -0.0512    0.1472    0.0000    0.0000   -0.9490   -0.0288   -0.0000   -0.0000
    10 N1     *py        0.0088   -0.2891   -0.0018    0.0050   -0.0000    0.0000   -0.4485   -0.0136   -0.0000   -0.0000
    11 N1     2pz       -0.0000   -0.0000   -0.0000   -0.0000   -0.2681    0.4128   -0.0000   -0.0000    0.5572   -1.7670
    12 N1     *pz        0.0000    0.0000    0.0000   -0.0000    0.4453   -0.1950    0.0000    0.0000   -0.1454    3.5358
    13 N1     *pz        0.0000   -0.0000    0.0000    0.0000    0.2099   -0.1912    0.0000    0.0000   -0.5970    1.2516
    14 N1     *d2-       0.0000   -0.0000   -0.0000   -0.0000    0.0000    0.0000    0.0000    0.0000    0.0000   -0.0000
    15 N1     *d2-      -0.0000    0.0000    0.0000    0.0000   -0.0000   -0.0000    0.0000   -0.0000   -0.0000    0.0000
    16 N1     *d1-      -0.0261    0.8557   -0.2628    0.7557    0.0000   -0.0000    0.1196    0.0036    0.0000    0.0000
    17 N1     *d1-       0.0219   -0.7160    0.1241   -0.3568   -0.0000    0.0000   -0.8310   -0.0253   -0.0000   -0.0000
    18 N1     *d0       -0.0000    0.0000    0.0000   -0.0000    0.6671    0.4003   -0.0000   -0.0000    0.6905    0.2652
    19 N1     *d0        0.0000   -0.0000   -0.0000    0.0000   -0.1558   -0.2431    0.0000    0.0000   -0.7773    1.4279
    20 N1     *d1+       0.8557    0.0261   -0.7557   -0.2628   -0.0000    0.0000    0.0036   -0.1196    0.0000   -0.0000
    21 N1     *d1+      -0.7160   -0.0219    0.3568    0.1241    0.0000   -0.0000   -0.0253    0.8310    0.0000   -0.0000
    22 N1     *d2+      -0.0000   -0.0000    0.0000   -0.0000   -0.0000   -0.0000    0.0000   -0.0000    0.0000   -0.0000
    23 N1     *d2+       0.0000    0.0000   -0.0000    0.0000    0.0000    0.0000   -0.0000   -0.0000   -0.0000    0.0000
    24 N1     *f3-       0.0000   -0.0000    0.0000   -0.0000    0.0000   -0.0000   -0.0000   -0.0000   -0.0000   -0.0000
    25 N1     *f2-      -0.0000    0.0000    0.0000    0.0000   -0.0000   -0.0000   -0.0000   -0.0000   -0.0000   -0.0000
    26 N1     *f1-      -0.0005    0.0153    0.0808   -0.2323   -0.0000    0.0000   -0.9765   -0.0297   -0.0000   -0.0000
    27 N1     *f0        0.0000   -0.0000    0.0000   -0.0000    0.4150   -0.2777    0.0000    0.0000   -0.4299    0.7426
    28 N1     *f1+       0.0153    0.0005    0.2323    0.0808   -0.0000    0.0000   -0.0297    0.9765    0.0000    0.0000
    29 N1     *f2+       0.0000    0.0000   -0.0000    0.0000    0.0000    0.0000   -0.0000    0.0000   -0.0000    0.0000
    30 N1     *f3+       0.0000    0.0000   -0.0000   -0.0000   -0.0000   -0.0000    0.0000   -0.0000    0.0000    0.0000
    31 N2     1s         0.0000    0.0000    0.0000   -0.0000    0.7302   -1.2467   -0.0000   -0.0000    1.2137   -2.1638
    32 N2     2s         0.0000    0.0000    0.0000   -0.0000    1.5223   -2.5367   -0.0000   -0.0000    3.0451   -5.5471
    33 N2     *s        -0.0000    0.0000   -0.0000    0.0000   -1.0130    1.8749    0.0000    0.0000   -1.4059    2.8672
    34 N2     *s        -0.0000    0.0000   -0.0000    0.0000   -1.3507    1.5066    0.0000    0.0000   -1.9081    1.1059
    35 N2     2px       -0.0012   -0.0000    0.0677    0.0236   -0.0000   -0.0000   -0.0218    0.7187    0.0000   -0.0000
    36 N2     *px        0.0661    0.0020   -0.1472   -0.0512    0.0000   -0.0000    0.0288   -0.9490   -0.0000    0.0000
    37 N2     *px        0.2891    0.0088   -0.0051   -0.0018   -0.0000    0.0000    0.0136   -0.4485   -0.0000    0.0000
    38 N2     2py        0.0000   -0.0012    0.0236   -0.0677   -0.0000    0.0000   -0.7187   -0.0218   -0.0000    0.0000
    39 N2     *py       -0.0020    0.0661   -0.0512    0.1472    0.0000   -0.0000    0.9490    0.0288    0.0000   -0.0000
    40 N2     *py       -0.0088    0.2891   -0.0018    0.0051    0.0000   -0.0000    0.4485    0.0136    0.0000   -0.0000
    41 N2     2pz       -0.0000    0.0000    0.0000   -0.0000   -0.2683   -0.4114    0.0000    0.0000   -0.5582   -1.7670
    42 N2     *pz        0.0000   -0.0000    0.0000    0.0000    0.4454    0.1926   -0.0000   -0.0000    0.1473    3.5358
    43 N2     *pz        0.0000   -0.0000   -0.0000    0.0000    0.2098    0.1898   -0.0000   -0.0000    0.5980    1.2514
    44 N2     *d2-       0.0000    0.0000    0.0000    0.0000   -0.0000   -0.0000   -0.0000    0.0000    0.0000    0.0000
    45 N2     *d2-      -0.0000   -0.0000   -0.0000   -0.0000    0.0000    0.0000   -0.0000   -0.0000    0.0000   -0.0000
    46 N2     *d1-      -0.0261    0.8559    0.2628   -0.7555   -0.0000   -0.0000    0.1196    0.0036    0.0000   -0.0000
    47 N2     *d1-       0.0219   -0.7161   -0.1240    0.3567    0.0000    0.0000   -0.8310   -0.0252   -0.0000    0.0000
    48 N2     *d0       -0.0000    0.0000   -0.0000    0.0000   -0.6670    0.4012   -0.0000   -0.0000    0.6901   -0.2653
    49 N2     *d0        0.0000   -0.0000    0.0000   -0.0000    0.1559   -0.2425    0.0000    0.0000   -0.7779   -1.4277
    50 N2     *d1+       0.8559    0.0261    0.7555    0.2628   -0.0000    0.0000    0.0036   -0.1196    0.0000    0.0000
    51 N2     *d1+      -0.7161   -0.0219   -0.3567   -0.1240    0.0000   -0.0000   -0.0252    0.8310    0.0000   -0.0000
    52 N2     *d2+       0.0000   -0.0000   -0.0000    0.0000    0.0000   -0.0000    0.0000    0.0000    0.0000    0.0000
    53 N2     *d2+      -0.0000    0.0000    0.0000   -0.0000   -0.0000    0.0000   -0.0000    0.0000   -0.0000   -0.0000
    54 N2     *f3-       0.0000   -0.0000    0.0000   -0.0000   -0.0000    0.0000    0.0000    0.0000   -0.0000    0.0000
    55 N2     *f2-       0.0000    0.0000    0.0000    0.0000    0.0000    0.0000    0.0000   -0.0000   -0.0000   -0.0000
    56 N2     *f1-       0.0005   -0.0152    0.0808   -0.2323   -0.0000   -0.0000    0.9765    0.0297    0.0000   -0.0000
    57 N2     *f0        0.0000   -0.0000    0.0000   -0.0000    0.4152    0.2768   -0.0000   -0.0000    0.4304    0.7425
    58 N2     *f1+      -0.0152   -0.0005    0.2323    0.0808    0.0000   -0.0000    0.0297   -0.9765   -0.0000    0.0000
    59 N2     *f2+       0.0000   -0.0000   -0.0000    0.0000    0.0000    0.0000   -0.0000   -0.0000   -0.0000    0.0000
    60 N2     *f3+       0.0000    0.0000   -0.0000   -0.0000    0.0000    0.0000   -0.0000    0.0000   -0.0000    0.0000
--

      Von Neumann Entropy (Root   1) =  0.80458


      Mulliken population analysis for root number:  1
      -----------------------------------------------


++    Molecular charges:
      ------------------

      Mulliken charges per centre and basis function type
      ---------------------------------------------------

                N1      N2    
      1s       2.0002  2.0002
      2s       1.9123  1.9124
      2px      0.9409  0.9409
      2pz      1.2438  1.2438
      2py      0.9409  0.9409
      *s      -0.0487 -0.0488
      *px      0.0432  0.0432
      *pz     -0.1325 -0.1325
      *py      0.0432  0.0432
      *d2+     0.0000  0.0000
      *d1+     0.0187  0.0187
      *d0      0.0162  0.0162
      *d1-     0.0187  0.0187
      *d2-     0.0000  0.0000
      *f3+     0.0000  0.0000
      *f2+     0.0000  0.0000
      *f1+     0.0009  0.0009
      *f0      0.0012  0.0012
      *f1-     0.0009  0.0009
      *f2-     0.0000  0.0000
      *f3-     0.0000  0.0000
      Total    7.0000  7.0000

      N-E      0.0000 -0.0000

      Total electronic charge=   14.000000

      Total            charge=   -0.000000
--



      Expectation values of various properties for root number:  1
      -----------------------------------------------------------

      Properties not supported for DMRGSCF 

++    Molecular properties:
      ---------------------

      Charge (e):
                      =   -0.0000
      Dipole Moment (Debye):
      Origin of the operator (Ang)=    0.0000    0.0000    0.0000
                   X= -5.3494E-08               Y=  8.3179E-08               Z= -1.7956E-05           Total=  1.7956E-05
      Quadrupole Moment (Debye*Ang):
      Origin of the operator (Ang)=    0.0000    0.0000    0.7000
                  XX= -1.1257E+01              XY= -1.0507E-10              XZ=  2.6675E-08              YY= -1.1257E+01
                  YZ= -1.7707E-08              ZZ= -1.2009E+01
      In traceless form (Debye*Ang)
                  XX=  3.7596E-01              XY= -1.5760E-10              XZ=  4.0013E-08              YY=  3.7596E-01
                  YZ= -2.6561E-08              ZZ= -7.5191E-01
--


      Input file to MOLDEN was generated!

      Average orbitals are written to the RASORB file
      Natural orbitals for root   1 are written to the RASORB.1 file
      Spin density orbitals for root   1 are written to the SPDORB.1 file

--- Stop Module: dmrgscf at Tue Apr  9 00:42:03 2024 /rc=_RC_ALL_IS_WELL_ ---
*** files: n2.GssOrb n2.guessorb.h5 n2.rasscf.molden n2.guessorb.molden n2.scf.molden n2.RasOrb n2.RasOrb.1 n2.dmrgscf.h5 n2.ScfOrb n2.scf.h5 n2.SpdOrb.1 xmldump
    saved to directory /public/home/xzzeng/work/HQC/N2/cc-pvtz/NO/PES/entropy/1.4/results/work_dir/n2/dmrg
--- Module dmrgscf spent 5 seconds ---

.##################.
.# Happy landing! #.
.##################.

    Timing: Wall=5.11 User=3.17 System=0.23
