[Molden Format]
[N_Atoms]
                    2
[Atoms] (AU)
N1          1      7           0.00000000      0.00000000      0.00000000
N2          2      7           0.00000000      0.00000000      1.13383567
[5D]
[7F]
[Charge] (Mulliken)
   0.0000000000000000     
   0.0000000000000000     
[GTO] (AU)
   1
   s  10
  1.142000000E+04  5.229996559E-04
  1.712000000E+03  4.044997339E-03
  3.893000000E+02  2.077498633E-02
  1.100000000E+02  8.072694689E-02
  3.557000000E+01  2.330738467E-01
  1.254000000E+01  4.335007148E-01
  4.644000000E+00  3.474717714E-01
  1.293000000E+00  4.126197285E-02
  5.118000000E-01 -8.507994403E-03
  1.787000000E-01  2.383998432E-03
   s  10
  1.142000000E+04 -1.149999544E-04
  1.712000000E+03 -8.949996452E-04
  3.893000000E+02 -4.623998167E-03
  1.100000000E+02 -1.852799265E-02
  3.557000000E+01 -5.733897727E-02
  1.254000000E+01 -1.320759476E-01
  4.644000000E+00 -1.725099316E-01
  1.293000000E+00  1.518139398E-01
  5.118000000E-01  5.999437621E-01
  1.787000000E-01  3.874618464E-01
   s   1
  1.293000000E+00  1.000000000E+00
   s   1
  1.787000000E-01  1.000000000E+00
   p   5
  2.663000000E+01  1.467000345E-02
  5.948000000E+00  9.176402155E-02
  1.742000000E+00  2.986830701E-01
  5.550000000E-01  4.984871171E-01
  1.725000000E-01  3.370230791E-01
   p   1
  5.550000000E-01  1.000000000E+00
   p   1
  1.725000000E-01  1.000000000E+00
   d   1
  1.654000000E+00  1.000000000E+00
   d   1
  4.690000000E-01  1.000000000E+00
   f   1
  1.093000000E+00  1.000000000E+00
 
   2
   s  10
  1.142000000E+04  5.229996559E-04
  1.712000000E+03  4.044997339E-03
  3.893000000E+02  2.077498633E-02
  1.100000000E+02  8.072694689E-02
  3.557000000E+01  2.330738467E-01
  1.254000000E+01  4.335007148E-01
  4.644000000E+00  3.474717714E-01
  1.293000000E+00  4.126197285E-02
  5.118000000E-01 -8.507994403E-03
  1.787000000E-01  2.383998432E-03
   s  10
  1.142000000E+04 -1.149999544E-04
  1.712000000E+03 -8.949996452E-04
  3.893000000E+02 -4.623998167E-03
  1.100000000E+02 -1.852799265E-02
  3.557000000E+01 -5.733897727E-02
  1.254000000E+01 -1.320759476E-01
  4.644000000E+00 -1.725099316E-01
  1.293000000E+00  1.518139398E-01
  5.118000000E-01  5.999437621E-01
  1.787000000E-01  3.874618464E-01
   s   1
  1.293000000E+00  1.000000000E+00
   s   1
  1.787000000E-01  1.000000000E+00
   p   5
  2.663000000E+01  1.467000345E-02
  5.948000000E+00  9.176402155E-02
  1.742000000E+00  2.986830701E-01
  5.550000000E-01  4.984871171E-01
  1.725000000E-01  3.370230791E-01
   p   1
  5.550000000E-01  1.000000000E+00
   p   1
  1.725000000E-01  1.000000000E+00
   d   1
  1.654000000E+00  1.000000000E+00
   d   1
  4.690000000E-01  1.000000000E+00
   f   1
  1.093000000E+00  1.000000000E+00
 
[MO]
Sym=     1a  
Ene=   -16.0240
Spin= Alpha
Occup=    2.00000
   1         0.69719204
   2         0.01158288
   3        -0.00154605
   4         0.00196376
   5         0.00000000
   6         0.00000000
   7         0.00713759
   8         0.00000000
   9         0.00000000
  10        -0.00012464
  11         0.00000000
  12         0.00000000
  13        -0.00033224
  14         0.00000000
  15         0.00000000
  16         0.00000000
  17        -0.00000000
  18         0.00000000
  19        -0.00000000
  20         0.00000000
  21         0.00000000
  22         0.00000000
  23         0.00000000
  24         0.00000000
  25         0.00000000
  26         0.00000000
  27         0.00000000
  28         0.00000000
  29        -0.00000000
  30        -0.00000000
  31         0.69719204
  32         0.01158288
  33        -0.00154605
  34         0.00196376
  35        -0.00000000
  36        -0.00000000
  37        -0.00713759
  38        -0.00000000
  39        -0.00000000
  40         0.00012464
  41        -0.00000000
  42        -0.00000000
  43         0.00033224
  44         0.00000000
  45         0.00000000
  46         0.00000000
  47         0.00000000
  48        -0.00000000
  49         0.00000000
  50         0.00000000
  51         0.00000000
  52        -0.00000000
  53        -0.00000000
  54        -0.00000000
  55        -0.00000000
  56        -0.00000000
  57         0.00000000
  58         0.00000000
  59        -0.00000000
  60         0.00000000
Sym=     2a  
Ene=   -15.3860
Spin= Alpha
Occup=    2.00000
   1        -0.71182143
   2         0.00412792
   3         0.00173839
   4        -0.00191230
   5        -0.00000000
   6         0.00000000
   7         0.00741484
   8        -0.00000000
   9         0.00000000
  10        -0.00012948
  11        -0.00000000
  12         0.00000000
  13        -0.00034514
  14        -0.00000000
  15        -0.00000000
  16         0.00000000
  17        -0.00000000
  18         0.00000000
  19        -0.00000000
  20        -0.00000000
  21         0.00000000
  22        -0.00000000
  23         0.00000000
  24         0.00000000
  25        -0.00000000
  26         0.00000000
  27        -0.00000000
  28         0.00000000
  29         0.00000000
  30         0.00000000
  31         0.71182143
  32        -0.00412792
  33        -0.00173839
  34         0.00191230
  35         0.00000000
  36         0.00000000
  37         0.00741484
  38         0.00000000
  39        -0.00000000
  40        -0.00012948
  41         0.00000000
  42        -0.00000000
  43        -0.00034514
  44        -0.00000000
  45        -0.00000000
  46         0.00000000
  47         0.00000000
  48        -0.00000000
  49        -0.00000000
  50        -0.00000000
  51         0.00000000
  52         0.00000000
  53        -0.00000000
  54         0.00000000
  55         0.00000000
  56        -0.00000000
  57        -0.00000000
  58        -0.00000000
  59        -0.00000000
  60        -0.00000000
Sym=     3a  
Ene=    -1.6794
Spin= Alpha
Occup=    2.00000
   1        -0.13254067
   2         0.50962458
   3         0.00542350
   4         0.00259973
   5         0.00000000
   6         0.00000000
   7         0.09648193
   8         0.00000000
   9         0.00000000
  10        -0.00168481
  11         0.00000000
  12         0.00000000
  13        -0.00449098
  14        -0.00000000
  15         0.00000000
  16         0.00000000
  17        -0.00000000
  18         0.00000000
  19        -0.00000000
  20         0.00000000
  21         0.00000000
  22         0.00000000
  23         0.00000000
  24        -0.00000000
  25         0.00000000
  26         0.00000000
  27         0.00000000
  28         0.00000000
  29        -0.00000000
  30         0.00000000
  31        -0.13254067
  32         0.50962458
  33         0.00542350
  34         0.00259973
  35        -0.00000000
  36        -0.00000000
  37        -0.09648193
  38        -0.00000000
  39        -0.00000000
  40         0.00168481
  41        -0.00000000
  42        -0.00000000
  43         0.00449098
  44        -0.00000000
  45         0.00000000
  46         0.00000000
  47         0.00000000
  48        -0.00000000
  49        -0.00000000
  50         0.00000000
  51         0.00000000
  52        -0.00000000
  53        -0.00000000
  54         0.00000000
  55        -0.00000000
  56        -0.00000000
  57         0.00000000
  58         0.00000000
  59        -0.00000000
  60        -0.00000000
Sym=     4a  
Ene=    -0.9463
Spin= Alpha
Occup=    2.00000
   1        -0.00000000
   2        -0.00000000
   3        -0.00000000
   4         0.00000000
   5        -0.36651233
   6         0.44766438
   7        -0.00000000
   8         0.00640019
   9        -0.00781730
  10         0.00000000
  11         0.01706017
  12        -0.02083758
  13         0.00000000
  14         0.00000000
  15        -0.00000000
  16        -0.00000000
  17        -0.00000000
  18        -0.00000000
  19         0.00000000
  20         0.00000000
  21        -0.00000000
  22        -0.00000000
  23        -0.00000000
  24         0.00000000
  25         0.00000000
  26        -0.00000000
  27        -0.00000000
  28        -0.00000000
  29        -0.00000000
  30        -0.00000000
  31         0.00000000
  32         0.00000000
  33        -0.00000000
  34        -0.00000000
  35        -0.36651233
  36         0.44766438
  37        -0.00000000
  38         0.00640019
  39        -0.00781730
  40        -0.00000000
  41         0.01706017
  42        -0.02083758
  43         0.00000000
  44         0.00000000
  45        -0.00000000
  46        -0.00000000
  47         0.00000000
  48         0.00000000
  49         0.00000000
  50        -0.00000000
  51        -0.00000000
  52         0.00000000
  53         0.00000000
  54        -0.00000000
  55         0.00000000
  56         0.00000000
  57        -0.00000000
  58        -0.00000000
  59         0.00000000
  60        -0.00000000
Sym=     5a  
Ene=    -0.9463
Spin= Alpha
Occup=    2.00000
   1        -0.00000000
   2        -0.00000000
   3         0.00000000
   4         0.00000000
   5         0.44766438
   6         0.36651233
   7         0.00000000
   8        -0.00781730
   9        -0.00640019
  10        -0.00000000
  11        -0.02083758
  12        -0.01706017
  13         0.00000000
  14         0.00000000
  15        -0.00000000
  16        -0.00000000
  17        -0.00000000
  18         0.00000000
  19         0.00000000
  20         0.00000000
  21        -0.00000000
  22        -0.00000000
  23         0.00000000
  24         0.00000000
  25         0.00000000
  26        -0.00000000
  27        -0.00000000
  28         0.00000000
  29         0.00000000
  30        -0.00000000
  31         0.00000000
  32         0.00000000
  33        -0.00000000
  34        -0.00000000
  35         0.44766438
  36         0.36651233
  37         0.00000000
  38        -0.00781730
  39        -0.00640019
  40        -0.00000000
  41        -0.02083758
  42        -0.01706017
  43         0.00000000
  44         0.00000000
  45        -0.00000000
  46        -0.00000000
  47         0.00000000
  48        -0.00000000
  49         0.00000000
  50         0.00000000
  51        -0.00000000
  52         0.00000000
  53        -0.00000000
  54         0.00000000
  55         0.00000000
  56         0.00000000
  57        -0.00000000
  58         0.00000000
  59        -0.00000000
  60         0.00000000
Sym=     6a  
Ene=    -0.8406
Spin= Alpha
Occup=    2.00000
   1         0.07512170
   2        -0.36807448
   3        -0.00386798
   4        -0.00193369
   5        -0.00000000
   6         0.00000000
   7         0.53241846
   8        -0.00000000
   9         0.00000000
  10        -0.00929731
  11        -0.00000000
  12         0.00000000
  13        -0.02478266
  14         0.00000000
  15        -0.00000000
  16         0.00000000
  17        -0.00000000
  18        -0.00000000
  19         0.00000000
  20        -0.00000000
  21         0.00000000
  22        -0.00000000
  23        -0.00000000
  24         0.00000000
  25        -0.00000000
  26         0.00000000
  27        -0.00000000
  28        -0.00000000
  29         0.00000000
  30         0.00000000
  31        -0.07512170
  32         0.36807448
  33         0.00386798
  34         0.00193369
  35         0.00000000
  36        -0.00000000
  37         0.53241846
  38         0.00000000
  39        -0.00000000
  40        -0.00929731
  41         0.00000000
  42        -0.00000000
  43        -0.02478266
  44         0.00000000
  45        -0.00000000
  46         0.00000000
  47         0.00000000
  48        -0.00000000
  49        -0.00000000
  50        -0.00000000
  51         0.00000000
  52         0.00000000
  53         0.00000000
  54         0.00000000
  55         0.00000000
  56        -0.00000000
  57        -0.00000000
  58        -0.00000000
  59        -0.00000000
  60        -0.00000000
Sym=     7a  
Ene=    -0.3599
Spin= Alpha
Occup=    2.00000
   1         0.17721498
   2         0.25518742
   3         0.00213503
   4         0.00196436
   5         0.00000000
   6        -0.00000000
   7        -0.91342756
   8        -0.00000000
   9        -0.00000000
  10         0.01595065
  11        -0.00000000
  12        -0.00000000
  13         0.04251762
  14         0.00000000
  15        -0.00000000
  16        -0.00000000
  17         0.00000000
  18        -0.00000000
  19         0.00000000
  20        -0.00000000
  21        -0.00000000
  22         0.00000000
  23        -0.00000000
  24        -0.00000000
  25        -0.00000000
  26        -0.00000000
  27         0.00000000
  28        -0.00000000
  29         0.00000000
  30         0.00000000
  31         0.17721498
  32         0.25518742
  33         0.00213503
  34         0.00196436
  35        -0.00000000
  36         0.00000000
  37         0.91342756
  38         0.00000000
  39         0.00000000
  40        -0.01595065
  41         0.00000000
  42         0.00000000
  43        -0.04251762
  44         0.00000000
  45        -0.00000000
  46        -0.00000000
  47        -0.00000000
  48         0.00000000
  49         0.00000000
  50        -0.00000000
  51        -0.00000000
  52        -0.00000000
  53         0.00000000
  54        -0.00000000
  55         0.00000000
  56         0.00000000
  57         0.00000000
  58        -0.00000000
  59        -0.00000000
  60        -0.00000000
Sym=     8a  
Ene=    -0.1949
Spin= Alpha
Occup=    0.00000
   1        -0.00000000
   2        -0.00000000
   3        -0.00000000
   4         0.00000000
   5        -0.73100095
   6        -1.04461497
   7        -0.00000000
   8         0.01276504
   9         0.01824150
  10         0.00000000
  11         0.03402615
  12         0.04862404
  13         0.00000000
  14         0.00000000
  15        -0.00000000
  16        -0.00000000
  17        -0.00000000
  18        -0.00000000
  19         0.00000000
  20        -0.00000000
  21        -0.00000000
  22        -0.00000000
  23        -0.00000000
  24         0.00000000
  25        -0.00000000
  26        -0.00000000
  27        -0.00000000
  28        -0.00000000
  29         0.00000000
  30         0.00000000
  31         0.00000000
  32         0.00000000
  33        -0.00000000
  34        -0.00000000
  35         0.73100095
  36         1.04461497
  37         0.00000000
  38        -0.01276504
  39        -0.01824150
  40        -0.00000000
  41        -0.03402615
  42        -0.04862404
  43         0.00000000
  44         0.00000000
  45        -0.00000000
  46        -0.00000000
  47         0.00000000
  48         0.00000000
  49         0.00000000
  50        -0.00000000
  51        -0.00000000
  52         0.00000000
  53        -0.00000000
  54        -0.00000000
  55         0.00000000
  56         0.00000000
  57        -0.00000000
  58        -0.00000000
  59        -0.00000000
  60        -0.00000000
Sym=     9a  
Ene=    -0.1949
Spin= Alpha
Occup=    0.00000
   1        -0.00000000
   2        -0.00000000
   3        -0.00000000
   4        -0.00000000
   5        -1.04461497
   6         0.73100095
   7        -0.00000000
   8         0.01824150
   9        -0.01276504
  10        -0.00000000
  11         0.04862404
  12        -0.03402615
  13        -0.00000000
  14        -0.00000000
  15        -0.00000000
  16        -0.00000000
  17        -0.00000000
  18        -0.00000000
  19        -0.00000000
  20        -0.00000000
  21        -0.00000000
  22        -0.00000000
  23        -0.00000000
  24        -0.00000000
  25        -0.00000000
  26        -0.00000000
  27        -0.00000000
  28        -0.00000000
  29         0.00000000
  30        -0.00000000
  31        -0.00000000
  32         0.00000000
  33         0.00000000
  34         0.00000000
  35         1.04461497
  36        -0.73100095
  37        -0.00000000
  38        -0.01824150
  39         0.01276504
  40         0.00000000
  41        -0.04862404
  42         0.03402615
  43        -0.00000000
  44        -0.00000000
  45        -0.00000000
  46        -0.00000000
  47         0.00000000
  48         0.00000000
  49        -0.00000000
  50        -0.00000000
  51        -0.00000000
  52         0.00000000
  53         0.00000000
  54         0.00000000
  55         0.00000000
  56         0.00000000
  57        -0.00000000
  58        -0.00000000
  59        -0.00000000
  60        -0.00000000
Sym=    10a  
Ene=    -0.0093
Spin= Alpha
Occup=    0.00000
   1        -1.76890978
   2        -6.10640334
   3        -0.05698198
   4        -0.04028204
   5        -0.00000000
   6         0.00000000
   7        -2.88565623
   8         0.00000000
   9         0.00000000
  10         0.05039051
  11         0.00000000
  12         0.00000000
  13         0.13431960
  14         0.00000000
  15         0.00000000
  16         0.00000000
  17         0.00000000
  18         0.00000000
  19         0.00000000
  20         0.00000000
  21         0.00000000
  22         0.00000000
  23         0.00000000
  24         0.00000000
  25         0.00000000
  26         0.00000000
  27         0.00000000
  28         0.00000000
  29         0.00000000
  30         0.00000000
  31         1.76890978
  32         6.10640334
  33         0.05698198
  34         0.04028204
  35        -0.00000000
  36         0.00000000
  37        -2.88565623
  38        -0.00000000
  39        -0.00000000
  40         0.05039051
  41        -0.00000000
  42        -0.00000000
  43         0.13431960
  44        -0.00000000
  45         0.00000000
  46         0.00000000
  47        -0.00000000
  48        -0.00000000
  49        -0.00000000
  50         0.00000000
  51         0.00000000
  52        -0.00000000
  53        -0.00000000
  54         0.00000000
  55        -0.00000000
  56        -0.00000000
  57         0.00000000
  58         0.00000000
  59        -0.00000000
  60        -0.00000000
Sym=    11a  
Ene=     3.7716
Spin= Alpha
Occup=    0.00000
   1         0.14866312
   2         0.54323799
   3         0.48210198
   4        -0.06635876
   5         0.00000000
   6         0.00000000
   7         0.11050988
   8         0.00000000
   9         0.00000000
  10        -0.32253390
  11         0.00000000
  12         0.00000000
  13        -2.56028450
  14        -0.03621677
  15         0.00000000
  16         0.00000000
  17        -0.00000000
  18         0.00000000
  19        -0.77767242
  20         0.00000000
  21         0.00000000
  22        -0.00000000
  23         0.00000000
  24        -0.08270296
  25         0.00000000
  26         0.00000000
  27        -0.00000000
  28         0.00000000
  29        -0.00000000
  30        -0.00000000
  31         0.14866312
  32         0.54323799
  33         0.48210198
  34        -0.06635876
  35        -0.00000000
  36        -0.00000000
  37        -0.11050988
  38        -0.00000000
  39        -0.00000000
  40         0.32253390
  41        -0.00000000
  42        -0.00000000
  43         2.56028450
  44        -0.03621677
  45         0.00000000
  46         0.00000000
  47         0.00000000
  48        -0.00000000
  49        -0.77767242
  50         0.00000000
  51         0.00000000
  52         0.00000000
  53         0.00000000
  54         0.08270296
  55        -0.00000000
  56        -0.00000000
  57        -0.00000000
  58         0.00000000
  59         0.00000000
  60         0.00000000
Sym=    12a  
Ene=     3.7929
Spin= Alpha
Occup=    0.00000
   1         0.00000000
   2         0.00000000
   3         0.00000000
   4        -0.00000000
   5        -0.00078682
   6        -0.00183317
   7         0.00000000
   8        -0.67815365
   9        -1.57999739
  10        -0.00000000
  11        -1.39664775
  12        -3.25398203
  13        -0.00000000
  14        -0.00000000
  15        -0.03031212
  16        -0.07062275
  17         0.00000000
  18         0.00000000
  19        -0.00000000
  20        -0.56300281
  21        -1.31171301
  22         0.00000000
  23         0.00000000
  24        -0.00000000
  25        -0.04624795
  26        -0.10775085
  27         0.00000000
  28         0.00000000
  29         0.00000000
  30        -0.00000000
  31         0.00000000
  32         0.00000000
  33         0.00000000
  34         0.00000000
  35         0.00078682
  36         0.00183317
  37        -0.00000000
  38         0.67815365
  39         1.57999739
  40         0.00000000
  41         1.39664775
  42         3.25398203
  43         0.00000000
  44        -0.00000000
  45        -0.03031212
  46        -0.07062275
  47        -0.00000000
  48        -0.00000000
  49        -0.00000000
  50        -0.56300281
  51        -1.31171301
  52        -0.00000000
  53         0.00000000
  54         0.00000000
  55         0.04624795
  56         0.10775085
  57         0.00000000
  58         0.00000000
  59        -0.00000000
  60         0.00000000
Sym=    13a  
Ene=     3.7929
Spin= Alpha
Occup=    0.00000
   1         0.00000000
   2         0.00000000
   3         0.00000000
   4         0.00000000
   5        -0.00183317
   6         0.00078682
   7         0.00000000
   8        -1.57999739
   9         0.67815365
  10        -0.00000000
  11        -3.25398203
  12         1.39664775
  13         0.00000000
  14        -0.00000000
  15        -0.07062275
  16         0.03031212
  17         0.00000000
  18         0.00000000
  19        -0.00000000
  20        -1.31171301
  21         0.56300281
  22         0.00000000
  23         0.00000000
  24        -0.00000000
  25        -0.10775085
  26         0.04624795
  27         0.00000000
  28         0.00000000
  29         0.00000000
  30        -0.00000000
  31         0.00000000
  32         0.00000000
  33         0.00000000
  34        -0.00000000
  35         0.00183317
  36        -0.00078682
  37        -0.00000000
  38         1.57999739
  39        -0.67815365
  40         0.00000000
  41         3.25398203
  42        -1.39664775
  43         0.00000000
  44        -0.00000000
  45        -0.07062275
  46         0.03031212
  47        -0.00000000
  48        -0.00000000
  49        -0.00000000
  50        -1.31171301
  51         0.56300281
  52        -0.00000000
  53        -0.00000000
  54         0.00000000
  55         0.10775085
  56        -0.04624795
  57         0.00000000
  58         0.00000000
  59         0.00000000
  60         0.00000000
Sym=    14a  
Ene=     3.9252
Spin= Alpha
Occup=    0.00000
   1        -0.04598649
   2        -0.17221197
   3        -0.49598349
   4       -45.91911684
   5         0.00000000
   6        -0.00000000
   7         0.10840723
   8        -0.00000000
   9         0.00000000
  10        -0.73753322
  11        -0.00000000
  12         0.00000000
  13       -11.36994623
  14        -0.06279808
  15        -0.00000000
  16        -0.00000000
  17        -0.00000000
  18        -0.00000000
  19        -0.73290530
  20        -0.00000000
  21         0.00000000
  22        -0.00000000
  23        -0.00000000
  24        -0.08626183
  25        -0.00000000
  26         0.00000000
  27        -0.00000000
  28        -0.00000000
  29        -0.00000000
  30        -0.00000000
  31         0.04598649
  32         0.17221197
  33         0.49598349
  34        45.91911684
  35         0.00000000
  36         0.00000000
  37         0.10840723
  38         0.00000000
  39        -0.00000000
  40        -0.73753322
  41         0.00000000
  42        -0.00000000
  43       -11.36994623
  44         0.06279808
  45        -0.00000000
  46        -0.00000000
  47         0.00000000
  48         0.00000000
  49         0.73290530
  50        -0.00000000
  51         0.00000000
  52         0.00000000
  53        -0.00000000
  54        -0.08626183
  55         0.00000000
  56         0.00000000
  57        -0.00000000
  58        -0.00000000
  59         0.00000000
  60         0.00000000
Sym=    15a  
Ene=     3.9932
Spin= Alpha
Occup=    0.00000
   1         0.00000000
   2         0.00000000
   3         0.00000000
   4         0.00000000
   5         0.00394099
   6         0.06114770
   7        -0.00000000
   8        -0.04597931
   9        -0.71340645
  10         0.00000000
  11         0.04551173
  12         0.70615156
  13         0.00000000
  14         0.00000000
  15        -0.00016023
  16        -0.00248613
  17        -0.00000000
  18         0.00000000
  19         0.00000000
  20         0.00846149
  21         0.13128693
  22         0.00000000
  23        -0.00000000
  24         0.00000000
  25         0.00376028
  26         0.05834382
  27        -0.00000000
  28        -0.00000000
  29         0.00000000
  30        -0.00000000
  31        -0.00000000
  32        -0.00000000
  33        -0.00000000
  34        -0.00000000
  35         0.00394099
  36         0.06114770
  37        -0.00000000
  38        -0.04597931
  39        -0.71340645
  40         0.00000000
  41         0.04551173
  42         0.70615156
  43         0.00000000
  44        -0.00000000
  45         0.00016023
  46         0.00248613
  47        -0.00000000
  48         0.00000000
  49        -0.00000000
  50        -0.00846149
  51        -0.13128693
  52        -0.00000000
  53         0.00000000
  54         0.00000000
  55         0.00376028
  56         0.05834382
  57        -0.00000000
  58         0.00000000
  59        -0.00000000
  60        -0.00000000
Sym=    16a  
Ene=     3.9932
Spin= Alpha
Occup=    0.00000
   1         0.00000000
   2         0.00000000
   3        -0.00000000
   4        -0.00000000
   5         0.06114770
   6        -0.00394099
   7        -0.00000000
   8        -0.71340645
   9         0.04597931
  10        -0.00000000
  11         0.70615156
  12        -0.04551173
  13        -0.00000000
  14        -0.00000000
  15        -0.00248613
  16         0.00016023
  17        -0.00000000
  18        -0.00000000
  19        -0.00000000
  20         0.13128693
  21        -0.00846149
  22         0.00000000
  23        -0.00000000
  24        -0.00000000
  25         0.05834382
  26        -0.00376028
  27         0.00000000
  28        -0.00000000
  29         0.00000000
  30         0.00000000
  31         0.00000000
  32         0.00000000
  33         0.00000000
  34         0.00000000
  35         0.06114770
  36        -0.00394099
  37         0.00000000
  38        -0.71340645
  39         0.04597931
  40         0.00000000
  41         0.70615156
  42        -0.04551173
  43        -0.00000000
  44         0.00000000
  45         0.00248613
  46        -0.00016023
  47         0.00000000
  48         0.00000000
  49         0.00000000
  50        -0.13128693
  51         0.00846149
  52        -0.00000000
  53         0.00000000
  54        -0.00000000
  55         0.05834382
  56        -0.00376028
  57         0.00000000
  58        -0.00000000
  59         0.00000000
  60         0.00000000
Sym=    17a  
Ene=     4.4518
Spin= Alpha
Occup=    0.00000
   1         0.66893267
   2         2.45685100
   3        -0.33568132
   4        -2.02564822
   5         0.00000000
   6         0.00000000
   7         0.06960907
   8         0.00000000
   9        -0.00000000
  10        -0.48282836
  11        -0.00000000
  12        -0.00000000
  13        -0.82423310
  14        -0.04031668
  15         0.00000000
  16        -0.00000000
  17        -0.00000000
  18        -0.00000000
  19        -0.21824293
  20         0.00000000
  21        -0.00000000
  22         0.00000000
  23         0.00000000
  24        -0.03730186
  25         0.00000000
  26        -0.00000000
  27         0.00000000
  28        -0.00000000
  29         0.00000000
  30         0.00000000
  31         0.66893267
  32         2.45685100
  33        -0.33568132
  34        -2.02564822
  35        -0.00000000
  36         0.00000000
  37        -0.06960907
  38        -0.00000000
  39         0.00000000
  40         0.48282836
  41        -0.00000000
  42         0.00000000
  43         0.82423310
  44        -0.04031668
  45         0.00000000
  46        -0.00000000
  47        -0.00000000
  48        -0.00000000
  49        -0.21824293
  50         0.00000000
  51        -0.00000000
  52         0.00000000
  53         0.00000000
  54         0.03730186
  55        -0.00000000
  56         0.00000000
  57         0.00000000
  58        -0.00000000
  59         0.00000000
  60        -0.00000000
Sym=    18a  
Ene=     4.4801
Spin= Alpha
Occup=    0.00000
   1        -0.03002046
   2        -0.08070943
   3        -0.52915398
   4       -27.57878831
   5        -0.00000000
   6         0.00000000
   7        -0.08870971
   8         0.00000000
   9         0.00000000
  10        -1.63481239
  11         0.00000000
  12         0.00000000
  13        -5.86601671
  14        -0.09415686
  15         0.00000000
  16         0.00000000
  17        -0.00000000
  18        -0.00000000
  19         0.25211036
  20         0.00000000
  21         0.00000000
  22         0.00000000
  23         0.00000000
  24         0.03532167
  25         0.00000000
  26         0.00000000
  27         0.00000000
  28        -0.00000000
  29        -0.00000000
  30        -0.00000000
  31         0.03002046
  32         0.08070943
  33         0.52915398
  34        27.57878831
  35        -0.00000000
  36        -0.00000000
  37        -0.08870971
  38        -0.00000000
  39        -0.00000000
  40        -1.63481239
  41        -0.00000000
  42        -0.00000000
  43        -5.86601671
  44         0.09415686
  45         0.00000000
  46         0.00000000
  47        -0.00000000
  48        -0.00000000
  49        -0.25211036
  50         0.00000000
  51         0.00000000
  52        -0.00000000
  53         0.00000000
  54         0.03532167
  55        -0.00000000
  56        -0.00000000
  57        -0.00000000
  58         0.00000000
  59         0.00000000
  60        -0.00000000
Sym=    19a  
Ene=     4.5128
Spin= Alpha
Occup=    0.00000
   1        -0.00000000
   2        -0.00000000
   3         0.00000000
   4         0.00000000
   5         0.00000000
   6         0.00000000
   7        -0.00000000
   8         0.00000000