   This run of MOLCAS is using the pymolcas driver

                             OPE
                             OPE          NMOL  CASOP  ENMOLC A   SO
                 OPE        NMOLC        AS  OP EN  MO LC     AS  OP
                OPENM       OL CA        SO  PE NM  OL CA     SOP EN
                OP EN      MO   LC       AS  OP ENMOL  CASO   PENMOL
                OP  EN     MO   LC       AS  OP EN     MO     LC ASO
               OP   E  NMOL  C  AS       OP  EN MO     LC     AS  OP
               OP  E   NMO   LC AS        OPEN  MO     LCASOP EN   M
               O  PEN   MO  LCA  SO
            OPE   NMO   L   CAS    OP
        OPENMOL  CASOP     ENMOL   CASOPE
     OPENMOLCA   SOPENMOLCASOPEN   MOLCASOPE
    OPENMOLCAS   OP           EN   MOL    CAS
    OPENMOLCAS       OP  ENM        O     LCA
    OPENMOLCAS    OPEN  MOLCASO     P  E  NMO
    OPENMOLCAS     OP               E  N  MOL
    OPENMOLCA   SO           PENM   O  L  CAS    OPEN    MO    LCAS
    OPENMOLCA   SOP           ENM   O  L  CAS   OP  EN  MOLC  AS   O
    OPENMOLCA   SOPE           NM      O  LCA   S      OP  EN MO
    OPENMOLC                AS         O  PEN   M      OL  CA  SOPE
    OPENMO        LCASOPE  NMOL        C  ASO   P      ENMOLC     AS
    OPE     NMO      LCA  SO     P     E   NM   OL  CA SO  PE N   MO
          OPENMOLCA            SOPE   NMO        LCAS  O    P  ENMO
     OPENMOLCASOPENMOLCASOPENMOLCASOPENMOLCA
        OPENMOLCASOPENMOLCASOPENMOLCASOPE
            OPENMOLCASOPENMOLCASOPENM
               OPENMOLCASOPENMOLCA        version: o822a959167d23c ?
                   OPENMOLCASO
                       OPE                tag:

 OpenMolcas is free software; you can redistribute it and/or modify it
 under the terms of the GNU Lesser General Public License version 2.1.
 OpenMolcas is distributed in the hope that it will be useful, but it
 is provided "as is" and without any express or implied warranties.
 For more details see the full text of the license in the file
 LICENSE or in <http://www.gnu.org/licenses/>.

                 Copyright (C) The OpenMolcas Authors
           For the author list and the recommended citation,
                   consult the file CONTRIBUTORS.md

           *************************************************
           * pymolcas version py2.28                       *
           *   build c4a6d18ded8cb6cad61d2372a9abd97c      *
           *   (after the EMIL interpreter by V. Veryazov) *
           *************************************************

configuration info
------------------
Host name: mgt (Linux)
C Compiler ID: GNU
C flags: -std=gnu99
Fortran Compiler ID: GNU
Fortran flags: -fno-aggressive-loop-optimizations -cpp -fdefault-integer-8 -fmax-stack-var-size=1048576
Definitions: _MOLCAS_;_I8_;_LINUX_
Parallel: OFF (GA=OFF)


   -------------------------------------------------------------------------------------------------------
  |
  |           Project: n2
  |    Submitted from: /public/home/xzzeng/work/HQC/N2/cc-pvtz/NO/PES/entropy/0.6/results/work_dir/n2/dmrg
  |      Scratch area: /public/home/xzzeng/work/HQC/N2/cc-pvtz/NO/PES/entropy/0.6/results/scratch
  |   Save outputs to: /public/home/xzzeng/work/HQC/N2/cc-pvtz/NO/PES/entropy/0.6/results/work_dir/n2/dmrg
  |            Molcas: /public/home/xzzeng/soft/OpenMolcas/build
  |
  | Scratch area is NOT empty
  |
  |    MOLCAS_DRIVER = /public/home/xzzeng/soft/OpenMolcas/build/pymolcas
  |    MOLCAS_NPROCS = 1
  |    MOLCAS_SOURCE = /public/home/xzzeng/soft/OpenMolcas
  | MOLCAS_STRUCTURE = 0
  |
   -------------------------------------------------------------------------------------------------------

++ ---------   Input file   ---------

&DMRGSCF
ActiveSpaceOptimizer = QCMaquis
DMRGSettings
  nsweeps = 5
  max_bond_dimension = 300
EndDMRGSettings
OOptimizationSettings
  SPIN    = 1
  NACTEL  = 10
  FILEORB = /public/home/xzzeng/work/HQC/N2/cc-pvtz/NO/PES/entropy/0.6/results/work_dir/n2/dmrg/n2.scf.h5_sel
  TYPEINDEX
  CIONLY
EndOOptimizationSettings

-- ----------------------------------

*** symbolic link created: INPORB -> n2.ScfOrb
--- Start Module: dmrgscf at Tue Apr  9 00:41:15 2024 ---

()()()()()()()()()()()()()()()()()()()()()()()()()()()()()()()()()()()()()()()()()()()()()()()()()()

                                              &DMRGSCF

                                   only a single process is used
                       available to each process: 12 GB of memory, 1 thread?
                                             pid: 59333
()()()()()()()()()()()()()()()()()()()()()()()()()()()()()()()()()()()()()()()()()()()()()()()()()()


      DMRGSCF: active space solver is set to qcmaquis
      -------                                --------


      Header of the ONEINT file:
      --------------------------
      
      Integrals generated by Gateway/Seward, Tue Apr  9 00:41:12 2024


      OrdInt status: non-squared


      Cartesian coordinates in Angstrom:
      -----------------------------------------------------
      No.  Label        X            Y            Z        
      -----------------------------------------------------
       1   N1         0.00000000   0.00000000   0.00000000
       2   N2         0.00000000   0.00000000   0.60000000
      -----------------------------------------------------
      Nuclear repulsion energy =   43.21613889

++    Wave function specifications:
      -----------------------------

      Number of closed shell electrons           4
      Number of electrons in active shells      10
      Max number of holes in RAS1 space          0
      Max nr of electrons in RAS3 space          0
      Number of inactive orbitals                2
      Number of active orbitals                  8
      Number of secondary orbitals              50
      Spin quantum number                      0.0
      State symmetry                             1
--

++    Orbital specifications:
      -----------------------

      Symmetry species                           1
                                                 a
      Frozen orbitals                            0
      Inactive orbitals                          2
      Active orbitals                            8
      RAS1 orbitals                              0
      RAS2 orbitals                              8
      RAS3 orbitals                              0
      Secondary orbitals                        50
      Deleted orbitals                           0
      Number of basis functions                 60
--

++    DMRG specifications:
      ----------------------------

      Number of renormalized states              300
      (Max) number of sweeps                     5
      Convergence threshold (sweep tolerance)    0.100E-07
      Jacobi-Davidson threshold                  0.100E-10
      SVD truncation threshold (initial)         1e-50
      SVD truncation threshold (final)           0.100E-10
      Number of root(s) required                 1
      Root chosen for geometry opt.              1
      DMRG root used                             1
         
--

++    Optimization specifications:
      ----------------------------

      RASSCF algorithm: LK Cholesky
      Maximum number of macro iterations       200
      Maximum number of SX iterations          100
      Threshold for RASSCF energy            1.000E-08
      Threshold for max MO rotation          1.000E-01
      Threshold for max BLB element          1.000E-04
      Level shift parameter                  5.000E-01
      Make Quasi-Newton update
--

      The MO-coefficients are taken from the file:
      /public/home/xzzeng/work/HQC/N2/cc-pvtz/NO/PES/entropy/0.6/results/work_dir/n2/dmrg/n2.scf.h5_sel                                                                                                                                                               

      Total molecular charge    0.00

      ************************************************************************************************************************
      *                                                                                                                      *
      *                                            Wave function control section                                             *
      *                                                                                                                      *
      ************************************************************************************************************************


                                         DMRGCI only, no orbital optimization will be done.
                                         --------------------------------------------------

                                             Please cite for the QCMaquis-Molcas driver:

                                    Freitag L.; Keller S.; Knecht S.; Lindh R.; Ma Y.; 
                                    Stein C. J. and Reiher M., in preparation. (2018).
                                    ---------------------------------------------------------------

                                             Please cite for the QCMaquis DMRG software:

                                    S. Keller, M. Dolfi, M. Troyer, M. Reiher,
                                    J. Chem. Phys. 143, 244118 (2015)
                                    ---------------------------------------------------------------



      DMRGCI energy              :    -106.2906414646
      Total time spent (hh:mm:ss):            0:00:02


      Natural orbitals and occupation numbers for root  1
      sym 1:   1.999994   1.999270   1.999270   1.999180   1.997111   0.002078   0.002078   0.001020

      ************************************************************************************************************************
      *                                                                                                                      *
      *                                                    Final results                                                     *
      *                                                                                                                      *
      ************************************************************************************************************************


++    Wave function specifications:
      -----------------------------

      Number of closed shell electrons           4
      Number of electrons in active shells      10
      Max number of holes in RAS1 space          0
      Max nr of electrons in RAS3 space          0
      Number of inactive orbitals                2
      Number of active orbitals                  8
      Number of secondary orbitals              50
      Spin quantum number                      0.0
      State symmetry                             1
--

++    Orbital specifications:
      -----------------------

      Symmetry species                           1
                                                 a
      Frozen orbitals                            0
      Inactive orbitals                          2
      Active orbitals                            8
      RAS1 orbitals                              0
      RAS2 orbitals                              8
      RAS3 orbitals                              0
      Secondary orbitals                        50
      Deleted orbitals                           0
      Number of basis functions                 60
--

++    DMRG specifications:
      ----------------------------

      Number of renormalized states              300
      (Max) number of sweeps                     5
      Convergence threshold (sweep tolerance)    0.100E-07
      Jacobi-Davidson threshold                  0.100E-10
      SVD truncation threshold (initial)         1e-50
      SVD truncation threshold (final)           0.100E-10
      Number of root(s) required                 1
      DMRG root used                             1
      highest root included in the DMRG          1
      Root passed to geometry opt.               1
--

++    Final optimization conditions:
      ------------------------------

      Average CI energy                            -106.29064146
--


      Final state energy(ies):
      ------------------------

::    RASSCF root number  1 Total energy:   -106.29064146

++    Molecular orbitals:
      -------------------

      Pseudonatural active orbitals and approximate occupation numbers




      Molecular orbitals for symmetry species 1: a  


      Orbital                 1         2         3         4         5         6         7         8         9        10
      Energy             0.0000    0.0000    0.0000    0.0000    0.0000    0.0000    0.0000    0.0000    0.0000    0.0000
      Occ. No.           0.0000    0.0000    0.0000    0.0000    0.0000    0.0000    0.0000    0.0000    0.0000    0.0000

     1 N1     1s         0.6972   -0.7096   -0.1065   -0.0000   -0.0000    0.0501   -0.0020   -0.0000    0.0000   -0.0434
     2 N1     2s         0.0147    0.0074    0.6868    0.0000    0.0000    0.1062   -0.5605   -0.0000    0.0000   -0.4217
     3 N1     *s        -0.0092   -0.0150   -0.0441   -0.0000   -0.0000    0.0381    0.0260   -0.0000    0.0000   -0.1219
     4 N1     *s        -0.0072   -0.0414   -0.2412    0.0000    0.0000    0.2719    0.0469   -0.0000    0.0000  -28.6218
     5 N1     2px        0.0000   -0.0000   -0.0000    0.8347   -0.0000    0.0000    0.0000    0.0000   -0.2968   -0.0000
     6 N1     *px       -0.0000    0.0000    0.0000   -0.1560    0.0000   -0.0000   -0.0000    0.0000   -0.7419   -0.0000
     7 N1     *px       -0.0000    0.0000    0.0000   -0.2134    0.0000   -0.0000   -0.0000    0.0000   -2.2811   -0.0000
     8 N1     2py        0.0000   -0.0000   -0.0000    0.0000    0.8347    0.0000    0.0000   -0.2968   -0.0000   -0.0000
     9 N1     *py       -0.0000    0.0000    0.0000   -0.0000   -0.1560   -0.0000   -0.0000   -0.7419   -0.0000    0.0000
    10 N1     *py       -0.0000    0.0000    0.0000   -0.0000   -0.2134    0.0000   -0.0000   -2.2811   -0.0000    0.0000
    11 N1     2pz        0.0343   -0.0232    0.6157    0.0000   -0.0000   -0.9421    0.4052   -0.0000   -0.0000    0.1898
    12 N1     *pz       -0.0117    0.0108   -0.2006   -0.0000   -0.0000    0.2168   -0.0134    0.0000    0.0000   -0.2300
    13 N1     *pz       -0.0114   -0.0008   -0.2411   -0.0000    0.0000    0.2047    0.0449   -0.0000    0.0000   -7.5497
    14 N1     *d2-       0.0000    0.0000   -0.0000    0.0000    0.0000   -0.0000   -0.0000   -0.0000   -0.0000    0.0000
    15 N1     *d2-      -0.0000   -0.0000   -0.0000    0.0000    0.0000    0.0000    0.0000   -0.0000   -0.0000    0.0000
    16 N1     *d1-       0.0000    0.0000   -0.0000    0.0000    0.0469   -0.0000    0.0000   -0.0109   -0.0000   -0.0000
    17 N1     *d1-       0.0000    0.0000   -0.0000    0.0000    0.0234   -0.0000    0.0000   -0.4592   -0.0000    0.0000
    18 N1     *d0        0.0094   -0.0035    0.0209    0.0000   -0.0000   -0.0312    0.0019    0.0000   -0.0000    0.0097
    19 N1     *d0        0.0018   -0.0008   -0.0154   -0.0000   -0.0000    0.0201    0.0051   -0.0000    0.0000   -0.2022
    20 N1     *d1+       0.0000   -0.0000   -0.0000    0.0469   -0.0000   -0.0000    0.0000    0.0000   -0.0109   -0.0000
    21 N1     *d1+      -0.0000   -0.0000   -0.0000    0.0234   -0.0000   -0.0000    0.0000    0.0000   -0.4592   -0.0000
    22 N1     *d2+      -0.0000    0.0000   -0.0000    0.0000   -0.0000    0.0000    0.0000    0.0000   -0.0000    0.0000
    23 N1     *d2+      -0.0000    0.0000   -0.0000    0.0000   -0.0000    0.0000   -0.0000    0.0000   -0.0000   -0.0000
    24 N1     *f3-       0.0000    0.0000   -0.0000    0.0000    0.0000    0.0000    0.0000    0.0000    0.0000   -0.0000
    25 N1     *f2-      -0.0000    0.0000   -0.0000   -0.0000   -0.0000    0.0000    0.0000    0.0000    0.0000    0.0000
    26 N1     *f1-       0.0000    0.0000   -0.0000    0.0000    0.0068    0.0000   -0.0000   -0.0390   -0.0000    0.0000
    27 N1     *f0        0.0040   -0.0009    0.0008    0.0000    0.0000   -0.0073   -0.0003   -0.0000    0.0000   -0.0373
    28 N1     *f1+       0.0000    0.0000   -0.0000    0.0068   -0.0000    0.0000    0.0000    0.0000   -0.0390   -0.0000
    29 N1     *f2+      -0.0000    0.0000   -0.0000   -0.0000    0.0000    0.0000   -0.0000   -0.0000    0.0000   -0.0000
    30 N1     *f3+      -0.0000   -0.0000    0.0000   -0.0000    0.0000    0.0000   -0.0000   -0.0000    0.0000    0.0000
    31 N2     1s         0.6973    0.7097   -0.1064   -0.0000   -0.0000    0.0501    0.0020    0.0000   -0.0000    0.0435
    32 N2     2s         0.0149   -0.0074    0.6868   -0.0000   -0.0000    0.1062    0.5605    0.0000   -0.0000    0.4220
    33 N2     *s        -0.0092    0.0150   -0.0441   -0.0000    0.0000    0.0381   -0.0261   -0.0000   -0.0000    0.1220
    34 N2     *s        -0.0072    0.0414   -0.2410   -0.0000   -0.0000    0.2723   -0.0469    0.0000   -0.0000   28.6218
    35 N2     2px       -0.0000   -0.0000   -0.0000    0.8347   -0.0000    0.0000    0.0000   -0.0000    0.2968   -0.0000
    36 N2     *px        0.0000    0.0000    0.0000   -0.1560    0.0000   -0.0000   -0.0000   -0.0000    0.7419    0.0000
    37 N2     *px        0.0000    0.0000    0.0000   -0.2134    0.0000   -0.0000   -0.0000   -0.0000    2.2810    0.0000
    38 N2     2py       -0.0000   -0.0000   -0.0000    0.0000    0.8347   -0.0000    0.0000    0.2968    0.0000   -0.0000
    39 N2     *py        0.0000    0.0000   -0.0000   -0.0000   -0.1560    0.0000   -0.0000    0.7419    0.0000   -0.0000
    40 N2     *py        0.0000    0.0000    0.0000   -0.0000   -0.2134   -0.0000   -0.0000    2.2810    0.0000   -0.0000
    41 N2     2pz       -0.0343   -0.0232   -0.6157   -0.0000   -0.0000    0.9421    0.4052    0.0000   -0.0000    0.1896
    42 N2     *pz        0.0117    0.0108    0.2006    0.0000    0.0000   -0.2169   -0.0134   -0.0000    0.0000   -0.2298
    43 N2     *pz        0.0114   -0.0008    0.2411    0.0000    0.0000   -0.2048    0.0449   -0.0000    0.0000   -7.5485
    44 N2     *d2-      -0.0000   -0.0000   -0.0000   -0.0000   -0.0000    0.0000   -0.0000   -0.0000   -0.0000    0.0000
    45 N2     *d2-       0.0000   -0.0000    0.0000   -0.0000   -0.0000   -0.0000   -0.0000   -0.0000   -0.0000    0.0000
    46 N2     *d1-       0.0000    0.0000    0.0000   -0.0000   -0.0469   -0.0000   -0.0000   -0.0109   -0.0000    0.0000
    47 N2     *d1-       0.0000   -0.0000    0.0000   -0.0000   -0.0234   -0.0000   -0.0000   -0.4592   -0.0000    0.0000
    48 N2     *d0        0.0094    0.0035    0.0209    0.0000    0.0000   -0.0312   -0.0019   -0.0000    0.0000   -0.0097
    49 N2     *d0        0.0018    0.0008   -0.0154    0.0000    0.0000    0.0201   -0.0051    0.0000   -0.0000    0.2020
    50 N2     *d1+       0.0000   -0.0000    0.0000   -0.0469    0.0000   -0.0000   -0.0000    0.0000   -0.0109    0.0000
    51 N2     *d1+       0.0000   -0.0000    0.0000   -0.0234    0.0000   -0.0000   -0.0000    0.0000   -0.4592   -0.0000
    52 N2     *d2+       0.0000   -0.0000    0.0000   -0.0000    0.0000   -0.0000   -0.0000    0.0000   -0.0000    0.0000
    53 N2     *d2+       0.0000   -0.0000    0.0000   -0.0000    0.0000   -0.0000    0.0000    0.0000   -0.0000   -0.0000
    54 N2     *f3-      -0.0000   -0.0000    0.0000   -0.0000   -0.0000   -0.0000   -0.0000   -0.0000   -0.0000    0.0000
    55 N2     *f2-      -0.0000    0.0000   -0.0000    0.0000   -0.0000   -0.0000    0.0000   -0.0000   -0.0000   -0.0000
    56 N2     *f1-      -0.0000    0.0000    0.0000    0.0000    0.0068    0.0000   -0.0000    0.0390    0.0000   -0.0000
    57 N2     *f0       -0.0040   -0.0009   -0.0008   -0.0000    0.0000    0.0073   -0.0003   -0.0000    0.0000   -0.0373
    58 N2     *f1+      -0.0000    0.0000    0.0000    0.0068   -0.0000    0.0000    0.0000   -0.0000    0.0390    0.0000
    59 N2     *f2+      -0.0000    0.0000   -0.0000   -0.0000   -0.0000    0.0000   -0.0000    0.0000   -0.0000   -0.0000
    60 N2     *f3+       0.0000   -0.0000   -0.0000    0.0000   -0.0000   -0.0000    0.0000   -0.0000    0.0000    0.0000


      Orbital                11        12        13        14        15        16        17        18        19        20
      Energy             0.0000    0.0000    0.0000    0.0000    0.0000    0.0000    0.0000    0.0000    0.0000    0.0000
      Occ. No.           0.0000    0.0000    0.0000    0.0000    0.0000    0.0000    0.0000    0.0000    0.0000    0.0000

     1 N1     1s        -0.0000    0.0000    0.0845    0.3746   -0.0000   -0.0000    0.0000    0.0000   -0.0876   -0.0000
     2 N1     2s         0.0000    0.0000    0.2986    1.7067   -0.0000   -0.0000    0.0000    0.0000    0.0101   -0.0000
     3 N1     *s         0.0000    0.0000    0.2903   -0.0342   -0.0000    0.0000    0.0000    0.0000   -0.3536   -0.0000
     4 N1     *s         0.0000    0.0000    0.1378   -1.5383    0.0000    0.0000    0.0001    0.0000  -38.5685    0.0000
     5 N1     2px       -0.3417   -0.0000   -0.0000    0.0000    0.6042   -0.0000   -0.0000   -0.0000    0.0000    0.0077
     6 N1     *px       -0.1770   -0.0000   -0.0000   -0.0000   -1.6843    0.0000    0.0000    0.0000    0.0000    0.6374
     7 N1     *px        0.7722    0.0000   -0.0000    0.0000   -2.6686    0.0000    0.0000    0.0000    0.0000   -0.2405
     8 N1     2py        0.0000   -0.3417   -0.0000    0.0000    0.0000    0.6042    0.0000   -0.0000   -0.0000   -0.0000
     9 N1     *py        0.0000   -0.1770   -0.0000   -0.0000   -0.0000   -1.6843   -0.0000    0.0000   -0.0000   -0.0000
    10 N1     *py       -0.0000    0.7722   -0.0000   -0.0000   -0.0000   -2.6686   -0.0000    0.0000   -0.0000    0.0000
    11 N1     2pz       -0.0000   -0.0000    0.4542   -0.1851    0.0000    0.0000    0.0000   -0.0000   -0.3808    0.0000
    12 N1     *pz        0.0000    0.0000   -0.4356   -0.2881    0.0000    0.0000    0.0000   -0.0000   -1.2634    0.0000
    13 N1     *pz        0.0000    0.0000   -2.2875   -0.5178    0.0000    0.0000    0.0000    0.0000   -8.5922    0.0000
    14 N1     *d2-      -0.0000   -0.0000    0.0000    0.0000    0.0000    0.0000    0.0000    0.0082    0.0000    0.0000
    15 N1     *d2-       0.0000    0.0000    0.0000   -0.0000    0.0000    0.0000    0.0000    0.5317    0.0000    0.0000
    16 N1     *d1-       0.0000   -0.0300   -0.0000   -0.0000   -0.0000   -0.1047   -0.0000    0.0000   -0.0000   -0.0000
    17 N1     *d1-      -0.0000    0.0245   -0.0000   -0.0000   -0.0000   -1.3842   -0.0000    0.0000   -0.0000    0.0000
    18 N1     *d0        0.0000   -0.0000   -0.0036   -0.0089   -0.0000    0.0000    0.0000    0.0000   -0.0598    0.0000
    19 N1     *d0        0.0000    0.0000   -0.4494   -0.0466    0.0000    0.0000    0.0000    0.0000   -0.0497    0.0000
    20 N1     *d1+      -0.0300   -0.0000   -0.0000   -0.0000   -0.1047    0.0000    0.0000    0.0000   -0.0000    0.0132
    21 N1     *d1+       0.0245    0.0000   -0.0000   -0.0000   -1.3842    0.0000    0.0000    0.0000    0.0000   -1.1351
    22 N1     *d2+      -0.0000    0.0000   -0.0000   -0.0000    0.0000   -0.0000    0.0082   -0.0000    0.0000    0.0000
    23 N1     *d2+       0.0000   -0.0000   -0.0000   -0.0000    0.0000   -0.0000    0.5317   -0.0000    0.0000    0.0000
    24 N1     *f3-       0.0000   -0.0000    0.0000    0.0000    0.0000    0.0000    0.0000    0.0000    0.0000    0.0000
    25 N1     *f2-       0.0000    0.0000    0.0000   -0.0000   -0.0000   -0.0000    0.0000    0.0021   -0.0000    0.0000
    26 N1     *f1-      -0.0000    0.0180   -0.0000   -0.0000   -0.0000   -0.1129   -0.0000    0.0000    0.0000    0.0000
    27 N1     *f0        0.0000    0.0000   -0.0483   -0.0176    0.0000    0.0000    0.0000   -0.0000   -0.0078    0.0000
    28 N1     *f1+       0.0180    0.0000   -0.0000    0.0000   -0.1129    0.0000    0.0000    0.0000    0.0000   -0.1314
    29 N1     *f2+       0.0000   -0.0000   -0.0000   -0.0000   -0.0000    0.0000    0.0021   -0.0000   -0.0000    0.0000
    30 N1     *f3+       0.0000    0.0000    0.0000    0.0000   -0.0000    0.0000    0.0000   -0.0000   -0.0000    0.0000
    31 N2     1s        -0.0000    0.0000    0.0845    0.3747   -0.0000   -0.0000   -0.0000    0.0000    0.0876   -0.0000
    32 N2     2s        -0.0000   -0.0000    0.2984    1.7070   -0.0000   -0.0000   -0.0000    0.0000   -0.0102   -0.0000
    33 N2     *s        -0.0000   -0.0000    0.2903   -0.0342   -0.0000   -0.0000   -0.0000    0.0000    0.3536   -0.0000
    34 N2     *s        -0.0000   -0.0000    0.1266   -1.5369   -0.0000   -0.0000   -0.0001   -0.0000   38.5685   -0.0000
    35 N2     2px       -0.3417   -0.0000    0.0000   -0.0000   -0.6042    0.0000    0.0000    0.0000   -0.0000    0.0077
    36 N2     *px       -0.1769   -0.0000    0.0000    0.0000    1.6843   -0.0000   -0.0000   -0.0000   -0.0000    0.6373
    37 N2     *px        0.7723    0.0000    0.0000    0.0000    2.6686   -0.0000   -0.0000   -0.0000   -0.0000   -0.2405
    38 N2     2py        0.0000   -0.3417    0.0000   -0.0000   -0.0000   -0.6042   -0.0000    0.0000    0.0000   -0.0000
    39 N2     *py        0.0000   -0.1769    0.0000    0.0000    0.0000    1.6843    0.0000   -0.0000    0.0000   -0.0000
    40 N2     *py       -0.0000    0.7723    0.0000    0.0000    0.0000    2.6686    0.0000   -0.0000    0.0000    0.0000
    41 N2     2pz       -0.0000   -0.0000   -0.4544    0.1851   -0.0000   -0.0000    0.0000   -0.0000   -0.3807   -0.0000
    42 N2     *pz        0.0000    0.0000    0.4356    0.2879   -0.0000    0.0000    0.0000    0.0000   -1.2635   -0.0000
    43 N2     *pz        0.0000    0.0000    2.2905    0.5175    0.0000    0.0000    0.0000    0.0000   -8.5923    0.0000
    44 N2     *d2-       0.0000   -0.0000   -0.0000   -0.0000    0.0000    0.0000    0.0000    0.0082    0.0000   -0.0000
    45 N2     *d2-      -0.0000   -0.0000   -0.0000    0.0000    0.0000    0.0000    0.0000    0.5317   -0.0000   -0.0000
    46 N2     *d1-      -0.0000    0.0300    0.0000   -0.0000   -0.0000   -0.1047   -0.0000    0.0000    0.0000    0.0000
    47 N2     *d1-       0.0000   -0.0246   -0.0000   -0.0000   -0.0000   -1.3842   -0.0000    0.0000   -0.0000   -0.0000
    48 N2     *d0        0.0000   -0.0000   -0.0036   -0.0089    0.0000   -0.0000   -0.0000   -0.0000    0.0598    0.0000
    49 N2     *d0       -0.0000   -0.0000   -0.4495   -0.0465    0.0000   -0.0000    0.0000   -0.0000    0.0497    0.0000
    50 N2     *d1+       0.0300    0.0000   -0.0000   -0.0000   -0.1047    0.0000    0.0000    0.0000    0.0000   -0.0132
    51 N2     *d1+      -0.0246   -0.0000   -0.0000   -0.0000   -1.3842    0.0000    0.0000    0.0000   -0.0000    1.1352
    52 N2     *d2+      -0.0000   -0.0000    0.0000    0.0000    0.0000   -0.0000    0.0082   -0.0000    0.0000   -0.0000
    53 N2     *d2+      -0.0000    0.0000   -0.0000    0.0000    0.0000   -0.0000    0.5317   -0.0000    0.0000   -0.0000
    54 N2     *f3-      -0.0000    0.0000   -0.0000   -0.0000   -0.0000   -0.0000   -0.0000   -0.0000   -0.0000   -0.0000
    55 N2     *f2-       0.0000    0.0000    0.0000    0.0000    0.0000    0.0000   -0.0000   -0.0021    0.0000    0.0000
    56 N2     *f1-      -0.0000    0.0180    0.0000    0.0000    0.0000    0.1129    0.0000   -0.0000    0.0000    0.0000
    57 N2     *f0        0.0000    0.0000    0.0483    0.0176   -0.0000   -0.0000   -0.0000    0.0000   -0.0078   -0.0000
    58 N2     *f1+       0.0180    0.0000    0.0000    0.0000    0.1129   -0.0000   -0.0000   -0.0000    0.0000   -0.1314
    59 N2     *f2+       0.0000   -0.0000   -0.0000   -0.0000    0.0000   -0.0000   -0.0021    0.0000    0.0000    0.0000
    60 N2     *f3+      -0.0000   -0.0000   -0.0000   -0.0000    0.0000   -0.0000   -0.0000    0.0000    0.0000   -0.0000


      Orbital                21        22        23        24        25        26        27        28        29        30
      Energy             0.0000    0.0000    0.0000    0.0000    0.0000    0.0000    0.0000    0.0000    0.0000    0.0000
      Occ. No.           0.0000    0.0000    0.0000    0.0000    0.0000    0.0000    0.0000    0.0000    0.0000    0.0000

     1 N1     1s         0.0000   -0.0000    0.0000    0.6001   -0.0485    0.0000   -0.0000    0.0000    0.0000    0.4773
     2 N1     2s         0.0000   -0.0000    0.0000    1.9208    0.1268    0.0000   -0.0000    0.0000    0.0000    1.8352
     3 N1     *s         0.0000   -0.0000    0.0000    1.3348   -0.3584    0.0000   -0.0000    0.0000    0.0000    2.3511
     4 N1     *s         0.0000    0.0000    0.0000   -1.6244  -19.5460    0.0000    0.0000    0.0000    0.0000   -1.8624
     5 N1     2px        0.0000    0.0000    0.0000    0.0000    0.0000   -0.0000    0.9326    1.7397    0.0000   -0.0000
     6 N1     *px        0.0000    0.0000    0.0000    0.0000    0.0000   -0.0000    6.2702   -1.6623   -0.0000    0.0000
     7 N1     *px       -0.0000   -0.0000   -0.0000    0.0000    0.0000   -0.0000    1.8943   -0.2496   -0.0000    0.0000
     8 N1     2py        0.0077   -0.0000    0.0000    0.0000   -0.0000   -0.9326   -0.0000   -0.0000    1.7397   -0.0000
     9 N1     *py        0.6374   -0.0000    0.0000    0.0000   -0.0000   -6.2702   -0.0000    0.0000   -1.6623    0.0000
    10 N1     *py       -0.2405    0.0000   -0.0000    0.0000   -0.0000   -1.8943   -0.0000    0.0000   -0.2496    0.0000
    11 N1     2pz       -0.0000    0.0000   -0.0000   -0.4680   -0.0316   -0.0000    0.0000   -0.0000   -0.0000    2.0712
    12 N1     *pz       -0.0000    0.0000   -0.0000   -1.6049    0.0019   -0.0000    0.0000    0.0000    0.0000   -5.3874
    13 N1     *pz        0.0000    0.0000   -0.0000   -2.1184   -4.7245    0.0000    0.0000    0.0000    0.0000   -2.1027
    14 N1     *d2-       0.0000    0.0000   -0.0480    0.0000   -0.0000   -0.0000    0.0000    0.0000    0.0000   -0.0000
    15 N1     *d2-       0.0000    0.0000   -1.6158    0.0000   -0.0000   -0.0000   -0.0000    0.0000    0.0000   -0.0000
    16 N1     *d1-       0.0132   -0.0000    0.0000    0.0000   -0.0000   -0.2335   -0.0000   -0.0000    0.1324    0.0000
    17 N1     *d1-      -1.1351    0.0000   -0.0000    0.0000   -0.0000   -3.6723   -0.0000    0.0000   -0.1294    0.0000
    18 N1     *d0       -0.0000    0.0000   -0.0000   -0.2024    0.0016   -0.0000    0.0000   -0.0000    0.0000   -0.1507
    19 N1     *d0        0.0000    0.0000   -0.0000   -2.1089   -1.1932   -0.0000    0.0000   -0.0000    0.0000   -2.6282
    20 N1     *d1+       0.0000    0.0000    0.0000    0.0000    0.0000   -0.0000    0.2335    0.1324    0.0000    0.0000
    21 N1     *d1+      -0.0000   -0.0000   -0.0000    0.0000    0.0000   -0.0000    3.6723   -0.1294   -0.0000    0.0000
    22 N1     *d2+      -0.0000   -0.0480   -0.0000   -0.0000   -0.0000    0.0000    0.0000    0.0000   -0.0000    0.0000
    23 N1     *d2+      -0.0000   -1.6158   -0.0000   -0.0000   -0.0000   -0.0000    0.0000    0.0000   -0.0000   -0.0000
    24 N1     *f3-      -0.0000   -0.0000   -0.0000    0.0000    0.0000   -0.0000   -0.0000   -0.0000    0.0000   -0.0000
    25 N1     *f2-       0.0000    0.0000   -0.2116    0.0000   -0.0000   -0.0000    0.0000    0.0000    0.0000   -0.0000
    26 N1     *f1-      -0.1314    0.0000   -0.0000    0.0000   -0.0000   -0.2596   -0.0000   -0.0000    0.1708    0.0000
    27 N1     *f0        0.0000    0.0000   -0.0000   -0.2253   -0.1230   -0.0000    0.0000   -0.0000    0.0000   -0.2881
    28 N1     *f1+      -0.0000   -0.0000   -0.0000   -0.0000   -0.0000   -0.0000    0.2596    0.1708    0.0000    0.0000
    29 N1     *f2+      -0.0000   -0.2116   -0.0000   -0.0000   -0.0000    0.0000    0.0000    0.0000   -0.0000   -0.0000
    30 N1     *f3+       0.0000   -0.0000    0.0000    0.0000    0.0000    0.0000   -0.0000   -0.0000   -0.0000    0.0000
    31 N2     1s         0.0000   -0.0000    0.0000    0.6003    0.0478    0.0000   -0.0000   -0.0000   -0.0000    0.4774
    32 N2     2s         0.0000   -0.0000    0.0000    1.9210   -0.1292    0.0000   -0.0000   -0.0000   -0.0000    1.8353
    33 N2     *s         0.0000   -0.0000    0.0000    1.3353    0.3568    0.0000   -0.0000    0.0000   -0.0000    2.3509
    34 N2     *s        -0.0000   -0.0000   -0.0000   -1.6022   19.5480   -0.0000   -0.0000   -0.0000   -0.0000   -1.8640
    35 N2     2px        0.0000   -0.0000    0.0000   -0.0000   -0.0000    0.0000   -0.9327    1.7397    0.0000    0.0000
    36 N2     *px        0.0000    0.0000    0.0000   -0.0000   -0.0000    0.0000   -6.2702   -1.6626   -0.0000   -0.0000
    37 N2     *px       -0.0000   -0.0000   -0.0000   -0.0000   -0.0000    0.0000   -1.8943   -0.2497   -0.0000   -0.0000
    38 N2     2py        0.0077   -0.0000   -0.0000   -0.0000   -0.0000    0.9327    0.0000   -0.0000    1.7397    0.0000
    39 N2     *py        0.6373   -0.0000    0.0000   -0.0000    0.0000    6.2702    0.0000    0.0000   -1.6626   -0.0000
    40 N2     *py       -0.2405    0.0000   -0.0000   -0.0000    0.0000    1.8943    0.0000    0.0000   -0.2497   -0.0000
    41 N2     2pz        0.0000   -0.0000    0.0000    0.4679   -0.0322    0.0000   -0.0000   -0.0000   -0.0000   -2.0714
    42 N2     *pz       -0.0000   -0.0000    0.0000    1.6048   -0.0000    0.0000   -0.0000    0.0000    0.0000    5.3877
    43 N2     *pz        0.0000   -0.0000    0.0000    2.1130   -4.7271    0.0000    0.0000    0.0000    0.0000    2.1031
    44 N2     *d2-      -0.0000   -0.0000    0.0480   -0.0000   -0.0000   -0.0000    0.0000   -0.0000   -0.0000   -0.0000
    45 N2     *d2-      -0.0000   -0.0000    1.6158   -0.0000    0.0000    0.0000   -0.0000   -0.0000   -0.0000    0.0000
    46 N2     *d1-      -0.0132    0.0000   -0.0000    0.0000   -0.0000   -0.2335   -0.0000    0.0000   -0.1324    0.0000
    47 N2     *d1-       1.1352   -0.0000    0.0000    0.0000    0.0000   -3.6722   -0.0000   -0.0000    0.1295    0.0000
    48 N2     *d0       -0.0000    0.0000   -0.0000   -0.2023   -0.0014   -0.0000    0.0000   -0.0000   -0.0000   -0.1508
    49 N2     *d0       -0.0000    0.0000   -0.0000   -2.1074    1.1957   -0.0000    0.0000   -0.0000    0.0000   -2.6282
    50 N2     *d1+      -0.0000   -0.0000   -0.0000    0.0000    0.0000   -0.0000    0.2335   -0.1324   -0.0000    0.0000
    51 N2     *d1+       0.0000    0.0000    0.0000    0.0000    0.0000   -0.0000    3.6722    0.1295    0.0000    0.0000
    52 N2     *d2+       0.0000    0.0480    0.0000    0.0000    0.0000    0.0000    0.0000   -0.0000    0.0000    0.0000
    53 N2     *d2+       0.0000    1.6158    0.0000    0.0000    0.0000   -0.0000   -0.0000   -0.0000    0.0000    0.0000
    54 N2     *f3-       0.0000   -0.0000   -0.0000   -0.0000   -0.0000   -0.0000   -0.0000    0.0000   -0.0000   -0.0000
    55 N2     *f2-       0.0000    0.0000   -0.2116    0.0000   -0.0000   -0.0000   -0.0000    0.0000    0.0000   -0.0000
    56 N2     *f1-      -0.1314    0.0000   -0.0000    0.0000   -0.0000    0.2596    0.0000   -0.0000    0.1707   -0.0000
    57 N2     *f0        0.0000   -0.0000    0.0000    0.2252   -0.1233    0.0000   -0.0000    0.0000   -0.0000    0.2881
    58 N2     *f1+      -0.0000   -0.0000   -0.0000   -0.0000   -0.0000    0.0000   -0.2596    0.1707    0.0000   -0.0000
    59 N2     *f2+      -0.0000   -0.2116   -0.0000   -0.0000   -0.0000   -0.0000    0.0000    0.0000   -0.0000   -0.0000
    60 N2     *f3+      -0.0000   -0.0000    0.0000   -0.0000   -0.0000    0.0000   -0.0000    0.0000    0.0000    0.0000


      Orbital                31        32        33        34        35        36        37        38        39        40
      Energy             0.0000    0.0000    0.0000    0.0000    0.0000    0.0000    0.0000    0.0000    0.0000    0.0000
      Occ. No.           0.0000    0.0000    0.0000    0.0000    0.0000    0.0000    0.0000    0.0000    0.0000    0.0000

     1 N1     1s        -0.4155    0.0000   -0.0000    0.0000   -0.0000    0.0000   -0.0000   -0.4392   -0.0000   -0.0000
     2 N1     2s        -2.2199    0.0000   -0.0000    0.0000   -0.0000    0.0000   -0.0000   -2.4634    0.0000   -0.0000
     3 N1     *s        -1.5365    0.0000   -0.0000    0.0000   -0.0000   -0.0000    0.0000   -1.7638    0.0000   -0.0000
     4 N1     *s       -17.4502    0.0000   -0.0000    0.0000   -0.0000    0.0000    0.0000  -17.9699    0.0000   -0.0000
     5 N1     2px       -0.0000   -0.0000   -0.0000    0.0000    0.0000   -1.8997    0.0000    0.0000   -0.0909    0.0000
     6 N1     *px        0.0000    0.0000   -0.0000   -0.0000   -0.0000    8.9439   -0.0000   -0.0000   -0.3030    0.0000
     7 N1     *px        0.0000    0.0000    0.0000   -0.0000   -0.0000    1.5076   -0.0000   -0.0000    0.1443   -0.0000
     8 N1     2py        0.0000    0.0000   -0.0000   -0.0000    0.0000    0.0000    1.8997   -0.0000    0.0000    0.0909
     9 N1     *py       -0.0000   -0.0001    0.0000    0.0000   -0.0000   -0.0000   -8.9439    0.0000    0.0000    0.3030
    10 N1     *py       -0.0000   -0.0000    0.0000    0.0000   -0.0000   -0.0000   -1.5076    0.0000   -0.0000   -0.1443
    11 N1     2pz        1.1962   -0.0000    0.0000   -0.0000    0.0000   -0.0000   -0.0000   -0.3284    0.0000   -0.0000
    12 N1     *pz       -3.0568    0.0000   -0.0000   -0.0000   -0.0000    0.0000   -0.0000   -1.5320    0.0000    0.0000
    13 N1     *pz       -4.3316    0.0000   -0.0000    0.0000   -0.0000    0.0000   -0.0000   -4.2495    0.0000   -0.0000
    14 N1     *d2-      -0.0000    0.0000    0.0000   -0.0000    0.5173    0.0000   -0.0000   -0.0000    0.0000   -0.0000
    15 N1     *d2-       0.0000   -0.0000    0.0000    0.0000   -0.3216   -0.0000    0.0000    0.0000   -0.0000    0.0000
    16 N1     *d1-      -0.0000   -0.0000    0.0000    0.0000   -0.0000   -0.0000   -0.6690    0.0000    0.0000    0.6274
    17 N1     *d1-      -0.0000   -0.0000   -0.0000    0.0000   -0.0000   -0.0000   -3.1871    0.0000   -0.0000   -0.9122
    18 N1     *d0       -0.4312    0.0000   -0.0000    0.0000   -0.0000    0.0000    0.0000    0.4074   -0.0000    0.0000
    19 N1     *d0       -0.2357   -0.0000    0.0000   -0.0000   -0.0000    0.0000   -0.0000   -1.2773    0.0000   -0.0000
    20 N1     *d1+       0.0000    0.0000    0.0000   -0.0000   -0.0000    0.6690   -0.0000   -0.0000   -0.6274    0.0000
    21 N1     *d1+       0.0000    0.0000   -0.0000   -0.0000   -0.0000    3.1871   -0.0000   -0.0000    0.9122   -0.0000
    22 N1     *d2+       0.0000   -0.0000    0.0000    0.5173    0.0000    0.0000    0.0000    0.0000    0.0000    0.0000
    23 N1     *d2+      -0.0000   -0.0000   -0.0000   -0.3216   -0.0000   -0.0000   -0.0000   -0.0000   -0.0000   -0.0000
    24 N1     *f3-       0.0000    0.5783   -0.0000    0.0000   -0.0000   -0.0000   -0.0000    0.0000    0.0000    0.0000
    25 N1     *f2-      -0.0000   -0.0000    0.0000   -0.0000    0.3210    0.0000   -0.0000    0.0000   -0.0000    0.0000
    26 N1     *f1-      -0.0000   -0.0000   -0.0000    0.0000   -0.0000   -0.0000   -0.4326    0.0000   -0.0000   -0.6388
    27 N1     *f0        0.0605    0.0000   -0.0000    0.0000   -0.0000   -0.0000   -0.0000   -0.5714    0.0000   -0.0000
    28 N1     *f1+       0.0000    0.0000   -0.0000   -0.0000   -0.0000    0.4326   -0.0000    0.0000    0.6388   -0.0000
    29 N1     *f2+      -0.0000   -0.0000   -0.0000    0.3210    0.0000    0.0000    0.0000   -0.0000   -0.0000   -0.0000
    30 N1     *f3+      -0.0000    0.0000    0.5783   -0.0000   -0.0000    0.0000   -0.0000    0.0000    0.0000   -0.0000
    31 N2     1s         0.4156    0.0000    0.0000    0.0000    0.0000    0.0000   -0.0000    0.4393   -0.0000   -0.0000
    32 N2     2s         2.2203   -0.0000    0.0000    0.0000    0.0000    0.0000   -0.0000    2.4635   -0.0000    0.0000
    33 N2     *s         1.5365   -0.0000    0.0000   -0.0000    0.0000   -0.0000    0.0000    1.7634   -0.0000    0.0000
    34 N2     *s        17.4500   -0.0000    0.0000   -0.0000    0.0000   -0.0000   -0.0000   17.9698   -0.0000    0.0000
    35 N2     2px        0.0000   -0.0000   -0.0000   -0.0000   -0.0000    1.8996   -0.0000   -0.0000   -0.0908    0.0000
    36 N2     *px       -0.0000   -0.0000    0.0000    0.0000    0.0000   -8.9438    0.0000    0.0000   -0.3034    0.0000
    37 N2     *px       -0.0000   -0.0000    0.0000    0.0000    0.0000   -1.5076    0.0000    0.0000    0.1442   -0.0000
    38 N2     2py       -0.0000   -0.0000   -0.0000    0.0000   -0.0000   -0.0000   -1.8996    0.0000    0.0000    0.0908
    39 N2     *py        0.0000    0.0001    0.0000   -0.0000    0.0000    0.0000    8.9438   -0.0000    0.0000    0.3034
    40 N2     *py        0.0000    0.0000    0.0000   -0.0000    0.0000    0.0000    1.5076   -0.0000   -0.0000   -0.1442
    41 N2     2pz        1.1959   -0.0000    0.0000   -0.0000    0.0000   -0.0000   -0.0000   -0.3283    0.0000   -0.0000
    42 N2     *pz       -3.0563    0.0000   -0.0000    0.0000   -0.0000   -0.0000    0.0000   -1.5323   -0.0000   -0.0000
    43 N2     *pz       -4.3314    0.0000   -0.0000    0.0000   -0.0000    0.0000    0.0000   -4.2496    0.0000   -0.0000
    44 N2     *d2-      -0.0000    0.0000    0.0000   -0.0000    0.5173    0.0000   -0.0000   -0.0000   -0.0000    0.0000
    45 N2     *d2-       0.0000    0.0000   -0.0000    0.0000   -0.3216   -0.0000    0.0000   -0.0000    0.0000   -0.0000
    46 N2     *d1-      -0.0000   -0.0000    0.0000    0.0000   -0.0000   -0.0000   -0.6690    0.0000   -0.0000   -0.6274
    47 N2     *d1-      -0.0000   -0.0000   -0.0000    0.0000   -0.0000   -0.0000   -3.1871    0.0000    0.0000    0.9121
    48 N2     *d0        0.4312   -0.0000    0.0000    0.0000    0.0000   -0.0000   -0.0000   -0.4074    0.0000   -0.0000
    49 N2     *d0        0.2355   -0.0000    0.0000   -0.0000    0.0000    0.0000   -0.0000    1.2774   -0.0000    0.0000
    50 N2     *d1+       0.0000    0.0000   -0.0000   -0.0000   -0.0000    0.6690   -0.0000   -0.0000    0.6274   -0.0000
    51 N2     *d1+       0.0000    0.0000    0.0000   -0.0000   -0.0000    3.1871   -0.0000   -0.0000   -0.9121    0.0000
    52 N2     *d2+       0.0000   -0.0000    0.0000    0.5172    0.0000    0.0000    0.0000    0.0000   -0.0000   -0.0000
    53 N2     *d2+       0.0000    0.0000    0.0000   -0.3216   -0.0000   -0.0000   -0.0000    0.0000    0.0000    0.0000
    54 N2     *f3-       0.0000    0.5782   -0.0000    0.0000   -0.0000   -0.0000   -0.0000   -0.0000   -0.0000   -0.0000
    55 N2     *f2-       0.0000   -0.0000    0.0000    0.0000   -0.3210   -0.0000    0.0000    0.0000   -0.0000    0.0000
    56 N2     *f1-       0.0000    0.0000   -0.0000   -0.0000    0.0000    0.0000    0.4326    0.0000   -0.0000   -0.6388
    57 N2     *f0        0.0605   -0.0000    0.0000    0.0000   -0.0000   -0.0000    0.0000   -0.5715    0.0000   -0.0000
    58 N2     *f1+      -0.0000   -0.0000   -0.0000    0.0000    0.0000   -0.4326    0.0000    0.0000    0.6388   -0.0000
    59 N2     *f2+      -0.0000   -0.0000   -0.0000   -0.3210   -0.0000   -0.0000   -0.0000   -0.0000   -0.0000   -0.0000
    60 N2     *f3+      -0.0000    0.0000    0.5782   -0.0000   -0.0000   -0.0000    0.0000    0.0000   -0.0000    0.0000


      Orbital                41        42        43        44        45        46        47        48        49        50
      Energy             0.0000    0.0000    0.0000    0.0000    0.0000    0.0000    0.0000    0.0000    0.0000    0.0000
      Occ. No.           0.0000    0.0000    0.0000    0.0000    0.0000    0.0000    0.0000    0.0000    0.0000    0.0000

     1 N1     1s        -0.0000    0.0000   -0.2984   -0.0000    0.0000    0.0000   -0.0000    0.0000    0.0000    1.4288
     2 N1     2s        -0.0000    0.0000   -0.7513   -0.0000   -0.0000    0.0000   -0.0000    0.0000    0.0000    2.9488
     3 N1     *s        -0.0000    0.0000    2.3790   -0.0000    0.0000   -0.0000    0.0000    0.0000    0.0000   -1.2574
     4 N1     *s        -0.0000    0.0000    0.0210   -0.0000   -0.0000    0.0000    0.0000   -0.0000    0.0000   -1.9348
     5 N1     2px       -0.0000   -0.0000   -0.0000   -0.0000   -0.0000    0.0000    0.0000   -0.7963   -0.0000    0.0000
     6 N1     *px       -0.0000   -0.0000    0.0000    0.0000   -0.0001    0.0000    0.0000   -3.5435   -0.0000   -0.0000
     7 N1     *px        0.0000    0.0000    0.0000    0.0000   -0.0000    0.0000    0.0000   -0.7379   -0.0000   -0.0000
     8 N1     2py        0.0000   -0.0000    0.0000    0.0000   -0.0000   -0.0000    0.0000    0.0000   -0.7963    0.0000
     9 N1     *py        0.0000   -0.0000    0.0000    0.0000   -0.0000   -0.0000    0.0000    0.0000   -3.5435   -0.0000
    10 N1     *py       -0.0000    0.0000    0.0000    0.0000   -0.0000   -0.0000    0.0000    0.0000   -0.7379   -0.0000
    11 N1     2pz        0.0000    0.0000   -0.0269    0.0000    0.0000   -0.0000   -0.0000    0.0000    0.0000    0.8999
    12 N1     *pz       -0.0000    0.0000   -2.0470   -0.0000   -0.0000    0.0000    0.0000   -0.0000   -0.0000   -1.4762
    13 N1     *pz       -0.0000    0.0000   -0.6995   -0.0000   -0.0000    0.0000    0.0000   -0.0000   -0.0000   -0.7610
    14 N1     *d2-       0.0000   -0.1184   -0.0000   -0.0000    0.0000   -0.0000    0.6029    0.0000    0.0000    0.0000
    15 N1     *d2-      -0.0000    1.3336    0.0000    0.0000   -0.0000    0.0000   -0.1668   -0.0000   -0.0000   -0.0000
    16 N1     *d1-       0.0000   -0.0000    0.0000   -0.0000   -0.0000    0.0000   -0.0000   -0.0000    0.0315   -0.0000
    17 N1     *d1-      -0.0000    0.0000    0.0000    0.0000   -0.0000   -0.0000    0.0000    0.0000   -1.9504   -0.0000
    18 N1     *d0        0.0000   -0.0000    0.0375    0.0000   -0.0000   -0.0000    0.0000   -0.0000   -0.0000   -0.2233
    19 N1     *d0       -0.0000    0.0000   -1.3552    0.0000   -0.0000    0.0000   -0.0000   -0.0000   -0.0000   -0.4483
    20 N1     *d1+      -0.0000   -0.0000    0.0000   -0.0000    0.0000   -0.0000   -0.0000    0.0315    0.0000   -0.0000
    21 N1     *d1+       0.0000    0.0000    0.0000    0.0000   -0.0001    0.0000    0.0000   -1.9504   -0.0000    0.0000
    22 N1     *d2+      -0.1185   -0.0000    0.0000   -0.0000   -0.0000    0.6029    0.0000    0.0000   -0.0000   -0.0000
    23 N1     *d2+       1.3336    0.0000    0.0000    0.0000    0.0000   -0.1667   -0.0000   -0.0000    0.0000    0.0000
    24 N1     *f3-       0.0000   -0.0000   -0.0000   -0.9953   -0.0000   -0.0000   -0.0000    0.0000   -0.0000   -0.0000
    25 N1     *f2-      -0.0000    1.0839    0.0000    0.0000   -0.0000    0.0000   -0.6463   -0.0000   -0.0000   -0.0000
    26 N1     *f1-      -0.0000    0.0000    0.0000    0.0000   -0.0000   -0.0000    0.0000    0.0000   -0.9232    0.0000
    27 N1     *f0        0.0000    0.0000   -0.9116    0.0000   -0.0000   -0.0000    0.0000   -0.0000   -0.0000   -0.2972
    28 N1     *f1+       0.0000    0.0000    0.0000    0.0000   -0.0000    0.0000    0.0000   -0.9232   -0.0000    0.0000
    29 N1     *f2+       1.0839    0.0000    0.0000    0.0000    0.0000   -0.6462   -0.0000   -0.0000    0.0000    0.0000
    30 N1     *f3+      -0.0000   -0.0000    0.0000    0.0000   -0.9953   -0.0000    0.0000    0.0000    0.0000    0.0000
    31 N2     1s         0.0000   -0.0000   -0.2985    0.0000    0.0000    0.0000   -0.0000    0.0000    0.0000    1.4291
    32 N2     2s         0.0000   -0.0000   -0.7515    0.0000    0.0000   -0.0000   -0.0000    0.0000    0.0000    2.9497
    33 N2     *s        -0.0000   -0.0000    2.3790   -0.0000    0.0000   -0.0000    0.0000    0.0000    0.0000   -1.2577
    34 N2     *s         0.0000   -0.0000    0.0219    0.0000   -0.0000   -0.0000   -0.0000    0.0000   -0.0000   -1.9365
    35 N2     2px       -0.0000   -0.0000   -0.0000   -0.0000    0.0000   -0.0000   -0.0000    0.7964    0.0000   -0.0000
    36 N2     *px       -0.0000   -0.0000   -0.0000   -0.0000    0.0001   -0.0000   -0.0000    3.5434    0.0000    0.0000
    37 N2     *px        0.0000    0.0000   -0.0000   -0.0000    0.0000   -0.0000   -0.0000    0.7379    0.0000    0.0000
    38 N2     2py        0.0000   -0.0000    0.0000   -0.0000   -0.0000    0.0000   -0.0000   -0.0000    0.7964   -0.0000
    39 N2     *py        0.0000   -0.0000   -0.0000   -0.0000    0.0000    0.0000   -0.0000   -0.0000    3.5434    0.0000
    40 N2     *py       -0.0000    0.0000   -0.0000   -0.0000    0.0000    0.0000   -0.0000   -0.0000    0.7379    0.0000
    41 N2     2pz        0.0000   -0.0000    0.0271    0.0000   -0.0000   -0.0000    0.0000   -0.0000   -0.0000   -0.9001
    42 N2     *pz       -0.0000    0.0000    2.0469   -0.0000    0.0000    0.0000    0.0000    0.0000    0.0000    1.4762
    43 N2     *pz       -0.0000    0.0000    0.6993   -0.0000    0.0000    0.0000    0.0000    0.0000    0.0000    0.7614
    44 N2     *d2-      -0.0000    0.1184   -0.0000   -0.0000    0.0000   -0.0000    0.6029    0.0000    0.0000    0.0000
    45 N2     *d2-       0.0000   -1.3336   -0.0000    0.0000   -0.0000    0.0000   -0.1666   -0.0000   -0.0000   -0.0000
    46 N2     *d1-      -0.0000    0.0000    0.0000   -0.0000   -0.0000    0.0000   -0.0000   -0.0000    0.0315   -0.0000
    47 N2     *d1-       0.0000   -0.0000    0.0000    0.0000   -0.0000   -0.0000    0.0000    0.0000   -1.9504   -0.0000
    48 N2     *d0        0.0000    0.0000    0.0374   -0.0000   -0.0000   -0.0000    0.0000   -0.0000   -0.0000   -0.2232
    49 N2     *d0        0.0000   -0.0000   -1.3552    0.0000   -0.0000    0.0000   -0.0000   -0.0000   -0.0000   -0.4483
    50 N2     *d1+       0.0000    0.0000    0.0000   -0.0000    0.0000   -0.0000   -0.0000    0.0315    0.0000   -0.0000
    51 N2     *d1+      -0.0000   -0.0000    0.0000    0.0000   -0.0001    0.0000    0.0000   -1.9504   -0.0000   -0.0000
    52 N2     *d2+       0.1184    0.0000    0.0000   -0.0000   -0.0000    0.6029    0.0000    0.0000   -0.0000    0.0000
    53 N2     *d2+      -1.3336   -0.0000   -0.0000    0.0000    0.0000   -0.1667   -0.0000   -0.0000    0.0000    0.0000
    54 N2     *f3-      -0.0000    0.0000    0.0000    0.9954    0.0000    0.0000    0.0000   -0.0000    0.0000    0.0000
    55 N2     *f2-      -0.0000    1.0840    0.0000   -0.0000    0.0000   -0.0000    0.6462    0.0000    0.0000    0.0000
    56 N2     *f1-      -0.0000    0.0000   -0.0000   -0.0000    0.0000    0.0000   -0.0000   -0.0000    0.9232   -0.0000
    57 N2     *f0       -0.0000    0.0000    0.9116   -0.0000    0.0000   -0.0000    0.0000    0.0000    0.0000    0.2973
    58 N2     *f1+       0.0000    0.0000   -0.0000   -0.0000    0.0000   -0.0000   -0.0000    0.9232    0.0000   -0.0000
    59 N2     *f2+       1.0839    0.0000    0.0000   -0.0000   -0.0000    0.6463    0.0000    0.0000   -0.0000   -0.0000
    60 N2     *f3+       0.0000    0.0000   -0.0000   -0.0000    0.9953    0.0000   -0.0000   -0.0000   -0.0000   -0.0000


      Orbital                51        52        53        54        55        56        57        58        59        60
      Energy             0.0000    0.0000    0.0000    0.0000    0.0000    0.0000    0.0000    0.0000    0.0000    0.0000
      Occ. No.           0.0000    0.0000    0.0000    0.0000    0.0000    0.0000    0.0000    0.0000    0.0000    0.0000

     1 N1     1s         0.2881    0.0000    0.0000   -0.0000   -0.0000   -0.7260    0.0000    0.0000   -0.4458   -7.9178
     2 N1     2s         1.6738    0.0000    0.0000   -0.0000   -0.0000   -2.2573    0.0000    0.0000   -2.3385  -24.5091
     3 N1     *s        -1.7385    0.0000    0.0000    0.0000   -0.0000    5.8546   -0.0000   -0.0000   -4.3502    2.0781
     4 N1     *s        -4.9083    0.0000    0.0000    0.0000   -0.0000    0.2352   -0.0000    0.0000   -5.8441   -3.0966
     5 N1     2px       -0.0000   -2.8663   -0.0000   -0.0000   -0.0000    0.0000   -0.0000    3.8288   -0.0000   -0.0000
     6 N1     *px        0.0000    1.5658    0.0000    0.0000    0.0000    0.0000   -0.0000    5.1178    0.0000   -0.0000
     7 N1     *px        0.0000    0.9810    0.0000    0.0000    0.0000    0.0000    0.0000   -0.5412    0.0000    0.0000
     8 N1     2py       -0.0000    0.0000   -2.8663    0.0000   -0.0000    0.0000    3.8288    0.0000   -0.0000   -0.0000
     9 N1     *py       -0.0000   -0.0000    1.5658   -0.0000    0.0000    0.0000    5.1178    0.0000   -0.0000    0.0000
    10 N1     *py        0.0000   -0.0000    0.9810   -0.0000    0.0000   -0.0000   -0.5412   -0.0000    0.0000    0.0000
    11 N1     2pz        0.3740   -0.0000    0.0000    0.0000   -0.0000    1.9352   -0.0000   -0.0000   -6.7406   -1.2866
    12 N1     *pz       -0.1468    0.0000   -0.0000   -0.0000    0.0000   -6.5195    0.0000    0.0000    1.7102   -6.6569
    13 N1     *pz       -1.1479    0.0000    0.0000   -0.0000    0.0000   -1.5007    0.0000    0.0000    0.8248   -2.4376
    14 N1     *d2-       0.0000   -0.0000   -0.0000   -0.0000    1.4753    0.0000    0.0000    0.0000   -0.0000   -0.0000
    15 N1     *d2-       0.0000   -0.0000   -0.0000   -0.0000    0.7171   -0.0000   -0.0000    0.0000    0.0000    0.0000
    16 N1     *d1-      -0.0000   -0.0000    0.3563   -0.0000    0.0000    0.0000    2.3906    0.0000   -0.0000    0.0000
    17 N1     *d1-      -0.0000   -0.0000    0.6908   -0.0000    0.0000    0.0000    2.6616    0.0000   -0.0000    0.0000
    18 N1     *d0       -0.4621    0.0000    0.0000   -0.0000   -0.0000   -1.8088    0.0000    0.0000   -1.5649   -0.3483
    19 N1     *d0       -0.7882    0.0000    0.0000   -0.0000    0.0000   -2.5811    0.0000    0.0000   -0.3924   -1.2900
    20 N1     *d1+       0.0000    0.3563    0.0000    0.0000    0.0000    0.0000   -0.0000    2.3906   -0.0000   -0.0000
    21 N1     *d1+       0.0000    0.6908    0.0000    0.0000    0.0000    0.0000   -0.0000    2.6616    0.0000   -0.0000
    22 N1     *d2+       0.0000   -0.0000    0.0000    1.4752    0.0000   -0.0000   -0.0000    0.0000   -0.0000   -0.0000
    23 N1     *d2+       0.0000   -0.0000    0.0000    0.7171    0.0000   -0.0000   -0.0000   -0.0000   -0.0000   -0.0000
    24 N1     *f3-      -0.0000   -0.0000    0.0000    0.0000   -0.0000    0.0000   -0.0000   -0.0000   -0.0000   -0.0000
    25 N1     *f2-      -0.0000   -0.0000   -0.0000   -0.0000    1.4227   -0.0000   -0.0000   -0.0000   -0.0000   -0.0000
    26 N1     *f1-       0.0000   -0.0000    1.2820   -0.0000    0.0000    0.0000    1.1259    0.0000    0.0000    0.0000
    27 N1     *f0       -1.4588    0.0000    0.0000   -0.0000    0.0000   -1.0527    0.0000    0.0000   -0.6940    0.0991
    28 N1     *f1+       0.0000    1.2820    0.0000    0.0000    0.0000    0.0000   -0.0000    1.1259    0.0000   -0.0000
    29 N1     *f2+       0.0000   -0.0000    0.0000    1.4228    0.0000   -0.0000    0.0000   -0.0000   -0.0000   -0.0000
    30 N1     *f3+      -0.0000   -0.0000   -0.0000   -0.0000   -0.0000    0.0000   -0.0000    0.0000    0.0000   -0.0000
    31 N2     1s        -0.2880   -0.0000   -0.0000    0.0000    0.0000   -0.7263    0.0000    0.0000    0.4458    7.9177
    32 N2     2s        -1.6736   -0.0000   -0.0000    0.0000    0.0000   -2.2579    0.0000    0.0000    2.3385   24.5088
    33 N2     *s         1.7384   -0.0000   -0.0000    0.0000   -0.0000    5.8550   -0.0000   -0.0000    4.3501   -2.0779
    34 N2     *s         4.9082   -0.0000   -0.0000   -0.0000    0.0000    0.2369    0.0000   -0.0000    5.8442    3.0967
    35 N2     2px       -0.0000   -2.8665   -0.0000   -0.0000   -0.0000   -0.0000    0.0000   -3.8287   -0.0000    0.0000
    36 N2     *px       -0.0000    1.5658    0.0000    0.0000    0.0000   -0.0000    0.0000   -5.1179   -0.0000    0.0000
    37 N2     *px        0.0000    0.9810    0.0000    0.0000    0.0000    0.0000   -0.0000    0.5412    0.0000   -0.0000
    38 N2     2py       -0.0000    0.0000   -2.8665    0.0000   -0.0000   -0.0000   -3.8287   -0.0000    0.0000   -0.0000
    39 N2     *py        0.0000   -0.0000    1.5658   -0.0000    0.0000   -0.0000   -5.1179   -0.0000    0.0000   -0.0000
    40 N2     *py        0.0000   -0.0000    0.9810   -0.0000    0.0000   -0.0000    0.5412    0.0000    0.0000    0.0000
    41 N2     2pz        0.3740    0.0000    0.0000   -0.0000    0.0000   -1.9354    0.0000    0.0000   -6.7406   -1.2866
    42 N2     *pz       -0.1467   -0.0000    0.0000    0.0000   -0.0000    6.5196   -0.0000   -0.0000    1.7100   -6.6568
    43 N2     *pz       -1.1479    0.0000    0.0000    0.0000   -0.0000    1.5004   -0.0000   -0.0000    0.8248   -2.4377
    44 N2     *d2-       0.0000    0.0000    0.0000    0.0000   -1.4752    0.0000   -0.0000    0.0000   -0.0000   -0.0000
    45 N2     *d2-      -0.0000    0.0000    0.0000    0.0000   -0.7171    0.0000    0.0000   -0.0000    0.0000    0.0000
    46 N2     *d1-      -0.0000    0.0000   -0.3562    0.0000   -0.0000    0.0000    2.3906    0.0000   -0.0000    0.0000
    47 N2     *d1-      -0.0000    0.0000   -0.6908    0.0000   -0.0000    0.0000    2.6616    0.0000   -0.0000    0.0000
    48 N2     *d0        0.4621    0.0000   -0.0000   -0.0000   -0.0000   -1.8087    0.0000    0.0000    1.5650    0.3482
    49 N2     *d0        0.7882    0.0000   -0.0000   -0.0000    0.0000   -2.5811    0.0000    0.0000    0.3925    1.2900
    50 N2     *d1+       0.0000   -0.3562   -0.0000   -0.0000   -0.0000    0.0000   -0.0000    2.3906   -0.0000   -0.0000
    51 N2     *d1+       0.0000   -0.6908   -0.0000   -0.0000   -0.0000    0.0000   -0.0000    2.6616    0.0000   -0.0000
    52 N2     *d2+      -0.0000    0.0000   -0.0000   -1.4753   -0.0000    0.0000   -0.0000   -0.0000    0.0000    0.0000
    53 N2     *d2+      -0.0000    0.0000   -0.0000   -0.7171   -0.0000    0.0000    0.0000    0.0000    0.0000    0.0000
    54 N2     *f3-       0.0000    0.0000   -0.0000   -0.0000    0.0000    0.0000    0.0000    0.0000    0.0000   -0.0000
    55 N2     *f2-       0.0000   -0.0000   -0.0000   -0.0000    1.4228   -0.0000    0.0000    0.0000    0.0000    0.0000
    56 N2     *f1-       0.0000   -0.0000    1.2819   -0.0000    0.0000   -0.0000   -1.1260   -0.0000    0.0000   -0.0000
    57 N2     *f0       -1.4588    0.0000    0.0000    0.0000   -0.0000    1.0526   -0.0000   -0.0000   -0.6940    0.0991
    58 N2     *f1+      -0.0000    1.2819    0.0000    0.0000    0.0000   -0.0000    0.0000   -1.1260    0.0000    0.0000
    59 N2     *f2+       0.0000   -0.0000    0.0000    1.4228    0.0000   -0.0000   -0.0000    0.0000   -0.0000   -0.0000
    60 N2     *f3+      -0.0000    0.0000    0.0000    0.0000    0.0000   -0.0000    0.0000   -0.0000   -0.0000   -0.0000
--

      Von Neumann Entropy (Root   1) =  0.02990


      Mulliken population analysis for root number:  1
      -----------------------------------------------


++    Molecular charges:
      ------------------

      Mulliken charges per centre and basis function type
      ---------------------------------------------------

                N1      N2    
      1s       1.9926  1.9926
      2s       1.5654  1.5655
      2px      1.4649  1.4650
      2pz      1.8426  1.8427
      2py      1.4649  1.4650
      *s      -0.1266 -0.1261
      *px     -0.5111 -0.5111
      *pz     -0.2911 -0.2911
      *py     -0.5111 -0.5111
      *d2+     0.0000  0.0000
      *d1+     0.0439  0.0439
      *d0      0.0164  0.0164
      *d1-     0.0439  0.0439
      *d2-     0.0000  0.0000
      *f3+     0.0000  0.0000
      *f2+    -0.0000 -0.0000
      *f1+     0.0029  0.0029
      *f0     -0.0010 -0.0010
      *f1-     0.0029  0.0029
      *f2-     0.0000 -0.0000
      *f3-     0.0000  0.0000
      Total    6.9996  7.0004

      N-E      0.0004 -0.0004

      Total electronic charge=   14.000000

      Total            charge=   -0.000000
--



      Expectation values of various properties for root number:  1
      -----------------------------------------------------------

      Properties not supported for DMRGSCF 

++    Molecular properties:
      ---------------------

      Charge (e):
                      =   -0.0000
      Dipole Moment (Debye):
      Origin of the operator (Ang)=    0.0000    0.0000    0.0000
                   X= -2.8867E-07               Y= -3.2266E-07               Z=  2.0079E-05           Total=  2.0083E-05
      Quadrupole Moment (Debye*Ang):
      Origin of the operator (Ang)=    0.0000    0.0000    0.3000
                  XX= -8.0600E+00              XY= -1.6618E-09              XZ= -1.4887E-07              YY= -8.0600E+00
                  YZ=  3.7920E-07              ZZ= -1.1135E+01
      In traceless form (Debye*Ang)
                  XX=  1.5377E+00              XY= -2.4927E-09              XZ= -2.2331E-07              YY=  1.5377E+00
                  YZ=  5.6881E-07              ZZ= -3.0754E+00
--


      Input file to MOLDEN was generated!

      Average orbitals are written to the RASORB file
      Natural orbitals for root   1 are written to the RASORB.1 file
      Spin density orbitals for root   1 are written to the SPDORB.1 file

--- Stop Module: dmrgscf at Tue Apr  9 00:41:18 2024 /rc=_RC_ALL_IS_WELL_ ---
*** files: n2.GssOrb n2.guessorb.h5 n2.rasscf.molden n2.guessorb.molden n2.scf.molden n2.RasOrb n2.RasOrb.1 n2.dmrgscf.h5 n2.ScfOrb n2.scf.h5 n2.SpdOrb.1 xmldump
    saved to directory /public/home/xzzeng/work/HQC/N2/cc-pvtz/NO/PES/entropy/0.6/results/work_dir/n2/dmrg
--- Module dmrgscf spent 3 seconds ---

.##################.
.# Happy landing! #.
.##################.

    Timing: Wall=3.52 User=2.51 System=0.18
