[Molden Format]
[N_Atoms]
                    2
[Atoms] (AU)
N1          1      7           0.00000000      0.00000000      0.00000000
N2          2      7           0.00000000      0.00000000      1.13383567
[5D]
[7F]
[Charge] (Mulliken)
   3.5283730303614647E-004
  -3.5283730319957129E-004
[GTO] (AU)
   1
   s  10
  1.142000000E+04  5.229996559E-04
  1.712000000E+03  4.044997339E-03
  3.893000000E+02  2.077498633E-02
  1.100000000E+02  8.072694689E-02
  3.557000000E+01  2.330738467E-01
  1.254000000E+01  4.335007148E-01
  4.644000000E+00  3.474717714E-01
  1.293000000E+00  4.126197285E-02
  5.118000000E-01 -8.507994403E-03
  1.787000000E-01  2.383998432E-03
   s  10
  1.142000000E+04 -1.149999544E-04
  1.712000000E+03 -8.949996452E-04
  3.893000000E+02 -4.623998167E-03
  1.100000000E+02 -1.852799265E-02
  3.557000000E+01 -5.733897727E-02
  1.254000000E+01 -1.320759476E-01
  4.644000000E+00 -1.725099316E-01
  1.293000000E+00  1.518139398E-01
  5.118000000E-01  5.999437621E-01
  1.787000000E-01  3.874618464E-01
   s   1
  1.293000000E+00  1.000000000E+00
   s   1
  1.787000000E-01  1.000000000E+00
   p   5
  2.663000000E+01  1.467000345E-02
  5.948000000E+00  9.176402155E-02
  1.742000000E+00  2.986830701E-01
  5.550000000E-01  4.984871171E-01
  1.725000000E-01  3.370230791E-01
   p   1
  5.550000000E-01  1.000000000E+00
   p   1
  1.725000000E-01  1.000000000E+00
   d   1
  1.654000000E+00  1.000000000E+00
   d   1
  4.690000000E-01  1.000000000E+00
   f   1
  1.093000000E+00  1.000000000E+00
 
   2
   s  10
  1.142000000E+04  5.229996559E-04
  1.712000000E+03  4.044997339E-03
  3.893000000E+02  2.077498633E-02
  1.100000000E+02  8.072694689E-02
  3.557000000E+01  2.330738467E-01
  1.254000000E+01  4.335007148E-01
  4.644000000E+00  3.474717714E-01
  1.293000000E+00  4.126197285E-02
  5.118000000E-01 -8.507994403E-03
  1.787000000E-01  2.383998432E-03
   s  10
  1.142000000E+04 -1.149999544E-04
  1.712000000E+03 -8.949996452E-04
  3.893000000E+02 -4.623998167E-03
  1.100000000E+02 -1.852799265E-02
  3.557000000E+01 -5.733897727E-02
  1.254000000E+01 -1.320759476E-01
  4.644000000E+00 -1.725099316E-01
  1.293000000E+00  1.518139398E-01
  5.118000000E-01  5.999437621E-01
  1.787000000E-01  3.874618464E-01
   s   1
  1.293000000E+00  1.000000000E+00
   s   1
  1.787000000E-01  1.000000000E+00
   p   5
  2.663000000E+01  1.467000345E-02
  5.948000000E+00  9.176402155E-02
  1.742000000E+00  2.986830701E-01
  5.550000000E-01  4.984871171E-01
  1.725000000E-01  3.370230791E-01
   p   1
  5.550000000E-01  1.000000000E+00
   p   1
  1.725000000E-01  1.000000000E+00
   d   1
  1.654000000E+00  1.000000000E+00
   d   1
  4.690000000E-01  1.000000000E+00
   f   1
  1.093000000E+00  1.000000000E+00
 
[MO]
Sym=     1a  
Ene=     0.0000
Spin= Alpha
Occup=    0.00000
   1         0.69724868
   2         0.01474529
   3        -0.00923669
   4        -0.00723024
   5         0.00000000
   6         0.00000000
   7         0.03430853
   8        -0.00000000
   9        -0.00000000
  10        -0.01169607
  11        -0.00000000
  12        -0.00000000
  13        -0.01138328
  14         0.00939768
  15         0.00000000
  16         0.00000000
  17        -0.00000000
  18         0.00000000
  19         0.00175976
  20        -0.00000000
  21         0.00000000
  22        -0.00000000
  23        -0.00000000
  24         0.00396366
  25         0.00000000
  26         0.00000000
  27        -0.00000000
  28        -0.00000000
  29        -0.00000000
  30         0.00000000
  31         0.69727402
  32         0.01487356
  33        -0.00924460
  34        -0.00719911
  35        -0.00000000
  36        -0.00000000
  37        -0.03431691
  38         0.00000000
  39         0.00000000
  40         0.01166047
  41         0.00000000
  42         0.00000000
  43         0.01136794
  44         0.00939936
  45         0.00000000
  46         0.00000000
  47         0.00000000
  48        -0.00000000
  49         0.00176666
  50         0.00000000
  51         0.00000000
  52         0.00000000
  53         0.00000000
  54        -0.00396253
  55        -0.00000000
  56        -0.00000000
  57        -0.00000000
  58        -0.00000000
  59         0.00000000
  60        -0.00000000
Sym=     2a  
Ene=     0.0000
Spin= Alpha
Occup=    0.00000
   1        -0.70964838
   2         0.00738306
   3        -0.01497588
   4        -0.04143604
   5        -0.00000000
   6        -0.00000000
   7        -0.02322041
   8         0.00000000
   9         0.00000000
  10         0.01081440
  11         0.00000000
  12         0.00000000
  13        -0.00080442
  14        -0.00347307
  15        -0.00000000
  16         0.00000000
  17         0.00000000
  18         0.00000000
  19        -0.00079976
  20        -0.00000000
  21         0.00000000
  22         0.00000000
  23        -0.00000000
  24        -0.00090131
  25         0.00000000
  26         0.00000000
  27         0.00000000
  28         0.00000000
  29        -0.00000000
  30         0.00000000
  31         0.70966784
  32        -0.00736931
  33         0.01497339
  34         0.04142656
  35        -0.00000000
  36        -0.00000000
  37        -0.02322374
  38         0.00000000
  39         0.00000000
  40         0.01082131
  41         0.00000000
  42         0.00000000
  43        -0.00079788
  44         0.00347350
  45        -0.00000000
  46         0.00000000
  47        -0.00000000
  48        -0.00000000
  49         0.00079541
  50        -0.00000000
  51        -0.00000000
  52        -0.00000000
  53        -0.00000000
  54        -0.00090108
  55         0.00000000
  56         0.00000000
  57         0.00000000
  58         0.00000000
  59        -0.00000000
  60        -0.00000000
Sym=     3a  
Ene=     0.0000
Spin= Alpha
Occup=    0.00000
   1        -0.10645399
   2         0.68681597
   3        -0.04409688
   4        -0.24117250
   5        -0.00000000
   6        -0.00000000
   7         0.61565272
   8         0.00000000
   9         0.00000000
  10        -0.20061767
  11         0.00000000
  12         0.00000000
  13        -0.24111428
  14         0.02085959
  15        -0.00000000
  16        -0.00000000
  17        -0.00000001
  18        -0.00000000
  19        -0.01536181
  20        -0.00000000
  21        -0.00000000
  22        -0.00000003
  23        -0.00000000
  24         0.00079914
  25        -0.00000000
  26        -0.00000000
  27        -0.00000001
  28        -0.00000000
  29         0.00000000
  30        -0.00000000
  31        -0.10644386
  32         0.68684640
  33        -0.04409753
  34        -0.24101949
  35        -0.00000000
  36        -0.00000000
  37        -0.61565615
  38         0.00000000
  39        -0.00000000
  40         0.20060658
  41         0.00000000
  42         0.00000000
  43         0.24107591
  44         0.02085969
  45         0.00000000
  46         0.00000000
  47         0.00000001
  48        -0.00000000
  49        -0.01535700
  50         0.00000000
  51         0.00000000
  52         0.00000003
  53         0.00000000
  54        -0.00080024
  55         0.00000000
  56         0.00000000
  57        -0.00000002
  58        -0.00000000
  59        -0.00000000
  60         0.00000000
Sym=     4a  
Ene=     0.0000
Spin= Alpha
Occup=    0.00000
   1        -0.00000000
   2         0.00000000
   3        -0.00000000
   4         0.00000000
   5         0.83472711
   6         0.00000019
   7         0.00000000
   8        -0.15595517
   9        -0.00000004
  10        -0.00000000
  11        -0.21336341
  12        -0.00000005
  13        -0.00000000
  14         0.00000000
  15         0.04692116
  16         0.00000001
  17         0.00000000
  18         0.00000000
  19        -0.00000000
  20         0.02336389
  21         0.00000001
  22         0.00000000
  23         0.00000000
  24         0.00000000
  25         0.00681145
  26         0.00000000
  27        -0.00000000
  28        -0.00000000
  29        -0.00000075
  30         0.00000000
  31        -0.00000000
  32        -0.00000000
  33        -0.00000000
  34        -0.00000000
  35         0.83473706
  36         0.00000019
  37        -0.00000000
  38        -0.15596261
  39        -0.00000004
  40         0.00000000
  41        -0.21336557
  42        -0.00000005
  43         0.00000000
  44         0.00000000
  45        -0.04692421
  46        -0.00000001
  47        -0.00000000
  48        -0.00000000
  49         0.00000000
  50        -0.02336354
  51        -0.00000001
  52        -0.00000000
  53        -0.00000000
  54        -0.00000000
  55         0.00681195
  56         0.00000000
  57        -0.00000000
  58         0.00000000
  59         0.00000081
  60        -0.00000000
Sym=     5a  
Ene=     0.0000
Spin= Alpha
Occup=    0.00000
   1        -0.00000000
   2         0.00000000
   3        -0.00000000
   4         0.00000000
   5        -0.00000019
   6         0.83472712
   7        -0.00000000
   8         0.00000004
   9        -0.15595520
  10        -0.00000000
  11         0.00000005
  12        -0.21336340
  13         0.00000000
  14        -0.00000000
  15        -0.00000001
  16         0.04692115
  17        -0.00000000
  18         0.00000000
  19        -0.00000000
  20        -0.00000001
  21         0.02336387
  22        -0.00000000
  23         0.00000000
  24         0.00000000
  25        -0.00000000
  26         0.00681145
  27         0.00000000
  28        -0.00000000
  29         0.00000000
  30         0.00000066
  31        -0.00000000
  32        -0.00000000
  33         0.00000000
  34        -0.00000000
  35        -0.00000019
  36         0.83473706
  37        -0.00000000
  38         0.00000004
  39        -0.15596258
  40         0.00000000
  41         0.00000005
  42        -0.21336557
  43         0.00000000
  44         0.00000000
  45         0.00000001
  46        -0.04692422
  47         0.00000000
  48        -0.00000000
  49         0.00000000
  50         0.00000001
  51        -0.02336354
  52         0.00000000
  53        -0.00000000
  54         0.00000000
  55        -0.00000000
  56         0.00681195
  57        -0.00000000
  58        -0.00000000
  59        -0.00000000
  60        -0.00000081
Sym=     6a  
Ene=     0.0000
Spin= Alpha
Occup=    0.00000
   1         0.05011909
   2         0.10621461
   3         0.03814893
   4         0.27192038
   5         0.00000000
   6         0.00000000
   7        -0.94205567
   8        -0.00000000
   9        -0.00000000
  10         0.21684372
  11        -0.00000000
  12         0.00000000
  13         0.20473672
  14        -0.03116415
  15        -0.00000000
  16        -0.00000000
  17         0.00000000
  18        -0.00000000
  19         0.02005945
  20        -0.00000000
  21        -0.00000000
  22         0.00000005
  23         0.00000000
  24        -0.00732575
  25         0.00000000
  26         0.00000000
  27         0.00000001
  28         0.00000000
  29         0.00000000
  30         0.00000000
  31         0.05012584
  32         0.10623218
  33         0.03814999
  34         0.27225370
  35         0.00000000
  36        -0.00000000
  37         0.94205522
  38        -0.00000000
  39         0.00000000
  40        -0.21685569
  41        -0.00000000
  42        -0.00000000
  43        -0.20482187
  44        -0.03116324
  45        -0.00000000
  46        -0.00000000
  47        -0.00000001
  48         0.00000000
  49         0.02006505
  50        -0.00000000
  51        -0.00000000
  52        -0.00000003
  53        -0.00000000
  54         0.00732581
  55         0.00000000
  56         0.00000000
  57         0.00000002
  58        -0.00000000
  59        -0.00000000
  60        -0.00000000
Sym=     7a  
Ene=     0.0000
Spin= Alpha
Occup=    0.00000
   1        -0.00202710
   2        -0.56051488
   3         0.02604428
   4         0.04692869
   5         0.00000000
   6         0.00000000
   7         0.40518155
   8        -0.00000000
   9        -0.00000000
  10        -0.01337730
  11        -0.00000000
  12        -0.00000000
  13         0.04492596
  14         0.00188330
  15         0.00000000
  16         0.00000000
  17         0.00000000
  18        -0.00000000
  19         0.00513447
  20         0.00000000
  21         0.00000000
  22        -0.00000001
  23         0.00000000
  24        -0.00026721
  25         0.00000000
  26        -0.00000000
  27        -0.00000000
  28         0.00000000
  29        -0.00000000
  30         0.00000000
  31         0.00202997
  32         0.56052299
  33        -0.02606636
  34        -0.04692854
  35         0.00000000
  36         0.00000000
  37         0.40519035
  38        -0.00000000
  39        -0.00000000
  40        -0.01339818
  41        -0.00000000
  42        -0.00000000
  43         0.04490857
  44        -0.00187928
  45        -0.00000000
  46        -0.00000000
  47        -0.00000000
  48        -0.00000000
  49        -0.00512113
  50        -0.00000000
  51        -0.00000000
  52         0.00000000
  53        -0.00000000
  54        -0.00027021
  55         0.00000000
  56        -0.00000000
  57        -0.00000000
  58         0.00000000
  59         0.00000000
  60        -0.00000000
Sym=     8a  
Ene=     0.0000
Spin= Alpha
Occup=    0.00000
   1        -0.00000000
   2        -0.00000000
   3        -0.00000000
   4        -0.00000000
   5         0.00000002
   6        -0.29675796
   7        -0.00000000
   8         0.00000005
   9        -0.74185417
  10         0.00000000
  11         0.00000016
  12        -2.28105782
  13        -0.00000000
  14         0.00000000
  15         0.00000000
  16        -0.01085271
  17         0.00000000
  18        -0.00000000
  19        -0.00000000
  20         0.00000003
  21        -0.45920180
  22         0.00000000
  23        -0.00000000
  24        -0.00000000
  25         0.00000000
  26        -0.03899688
  27        -0.00000000
  28         0.00000000
  29        -0.00000000
  30         0.00000002
  31         0.00000000
  32         0.00000000
  33        -0.00000000
  34         0.00000000
  35        -0.00000002
  36         0.29677603
  37         0.00000000
  38        -0.00000005
  39         0.74186384
  40        -0.00000000
  41        -0.00000016
  42         2.28102062
  43        -0.00000000
  44        -0.00000000
  45         0.00000000
  46        -0.01085536
  47         0.00000000
  48        -0.00000000
  49         0.00000000
  50         0.00000003
  51        -0.45919380
  52         0.00000000
  53        -0.00000000
  54        -0.00000000
  55        -0.00000000
  56         0.03899465
  57         0.00000000
  58        -0.00000000
  59        -0.00000000
  60        -0.00000016
Sym=     9a  
Ene=     0.0000
Spin= Alpha
Occup=    0.00000
   1         0.00000000
   2         0.00000000
   3         0.00000000
   4         0.00000000
   5        -0.29675797
   6        -0.00000002
   7        -0.00000000
   8        -0.74185429
   9        -0.00000005
  10         0.00000000
  11        -2.28105778
  12        -0.00000016
  13         0.00000000
  14        -0.00000000
  15        -0.01085272
  16        -0.00000000
  17        -0.00000000
  18        -0.00000000
  19         0.00000000
  20        -0.45920185
  21        -0.00000003
  22        -0.00000000
  23        -0.00000000
  24         0.00000000
  25        -0.03899689
  26        -0.00000000
  27         0.00000000
  28         0.00000000
  29         0.00000018
  30         0.00000000
  31        -0.00000000
  32        -0.00000000
  33        -0.00000000
  34        -0.00000000
  35         0.29677602
  36         0.00000002
  37        -0.00000000
  38         0.74186390
  39         0.00000005
  40         0.00000000
  41         2.28102070
  42         0.00000016
  43         0.00000000
  44         0.00000000
  45        -0.01085537
  46        -0.00000000
  47        -0.00000000
  48        -0.00000000
  49        -0.00000000
  50        -0.45919383
  51        -0.00000003
  52        -0.00000000
  53        -0.00000000
  54         0.00000000
  55         0.03899466
  56         0.00000000
  57        -0.00000000
  58        -0.00000000
  59         0.00000015
  60        -0.00000000
Sym=    10a  
Ene=     0.0000
Spin= Alpha
Occup=    0.00000
   1        -0.04344221
   2        -0.42170859
   3        -0.12185243
   4       -28.62182945
   5        -0.00000000
   6        -0.00000000
   7         0.18977492
   8        -0.00000000
   9         0.00000000
  10        -0.23004505
  11        -0.00000000
  12         0.00000000
  13        -7.54970728
  14         0.00974270
  15        -0.00000000
  16        -0.00000000
  17         0.00000001
  18         0.00000000
  19        -0.20223923
  20        -0.00000000
  21         0.00000000
  22        -0.00000004
  23         0.00000000
  24        -0.03734777
  25        -0.00000000
  26         0.00000000
  27        -0.00000003
  28         0.00000000
  29         0.00000000
  30        -0.00000000
  31         0.04352971
  32         0.42202476
  33         0.12199103
  34        28.62175302
  35        -0.00000000
  36        -0.00000000
  37         0.18957339
  38         0.00000000
  39        -0.00000000
  40        -0.22979856
  41         0.00000000
  42        -0.00000000
  43        -7.54850652
  44        -0.00974276
  45         0.00000000
  46         0.00000000
  47         0.00000002
  48         0.00000000
  49         0.20197611
  50        -0.00000000
  51         0.00000000
  52        -0.00000009
  53         0.00000000
  54        -0.03732225
  55         0.00000000
  56        -0.00000000
  57        -0.00000001
  58        -0.00000000
  59         0.00000000
  60         0.00000000
Sym=    11a  
Ene=     0.0000
Spin= Alpha
Occup=    0.00000
   1        -0.00000000
   2         0.00000000
   3         0.00000000
   4         0.00000000
   5        -0.34166834
   6         0.00000000
   7        -0.00000000
   8        -0.17700162
   9         0.00000000
  10         0.00000000
  11         0.77221460
  12        -0.00000001
  13         0.00000000
  14         0.00000000
  15        -0.02995242
  16         0.00000000
  17        -0.00000000
  18        -0.00000000
  19         0.00000000
  20         0.02452680
  21        -0.00000000
  22         0.00000000
  23         0.00000000
  24         0.00000000
  25         0.01798616
  26        -0.00000000
  27         0.00000000
  28         0.00000000
  29         0.00000037
  30         0.00000000
  31        -0.00000000
  32        -0.00000000
  33        -0.00000000
  34        -0.00000000
  35        -0.34166068
  36         0.00000000
  37        -0.00000000
  38        -0.17693420
  39         0.00000000
  40         0.00000000
  41         0.77233006
  42        -0.00000001
  43         0.00000000
  44         0.00000000
  45         0.02995215
  46        -0.00000000
  47        -0.00000000
  48         0.00000000
  49        -0.00000000
  50        -0.02456341
  51         0.00000000
  52        -0.00000000
  53        -0.00000000
  54         0.00000000
  55         0.01798856
  56        -0.00000000
  57         0.00000000
  58         0.00000000
  59        -0.00000047
  60        -0.00000000
Sym=    12a  
Ene=     0.0000
Spin= Alpha
Occup=    0.00000
   1         0.00000000
   2         0.00000000
   3         0.00000000
   4         0.00000000
   5        -0.00000000
   6        -0.34166836
   7        -0.00000000
   8        -0.00000000
   9        -0.17700162
  10         0.00000000
  11         0.00000001
  12         0.77221432
  13         0.00000000
  14        -0.00000000
  15        -0.00000000
  16        -0.02995241
  17         0.00000000
  18        -0.00000000
  19         0.00000000
  20         0.00000000
  21         0.02452678
  22        -0.00000000
  23         0.00000000
  24         0.00000000
  25         0.00000000
  26         0.01798615
  27        -0.00000000
  28         0.00000000
  29         0.00000000
  30        -0.00000034
  31         0.00000000
  32        -0.00000000
  33        -0.00000000
  34        -0.00000000
  35        -0.00000000
  36        -0.34166068
  37        -0.00000000
  38        -0.00000000
  39        -0.17693420
  40         0.00000000
  41         0.00000001
  42         0.77233035
  43         0.00000000
  44        -0.00000000
  45         0.00000000
  46         0.02995217
  47        -0.00000000
  48        -0.00000000
  49        -0.00000000
  50        -0.00000000
  51        -0.02456347
  52         0.00000000
  53        -0.00000000
  54         0.00000000
  55         0.00000000
  56         0.01798857
  57        -0.00000000
  58         0.00000000
  59        -0.00000000
  60         0.00000048
Sym=    13a  
Ene=     0.0000
Spin= Alpha
Occup=    0.00000
   1         0.08453164
   2         0.29856034
   3         0.29031340
   4         0.13779392
   5        -0.00000000
   6        -0.00000000
   7         0.45423851
   8        -0.00000000
   9        -0.00000000
  10        -0.43561055
  11        -0.00000000
  12        -0.00000000
  13        -2.28746658
  14        -0.00362721
  15        -0.00000000
  16        -0.00000000
  17        -0.00000000
  18         0.00000000
  19        -0.44943302
  20        -0.00000000
  21        -0.00000000
  22        -0.00000006
  23         0.00000000
  24        -0.04825695
  25        -0.00000000
  26        -0.00000000
  27        -0.00000003
  28         0.00000000
  29         0.00000000
  30         0.00000000
  31         0.08453357
  32         0.29841643
  33         0.29029416
  34         0.12656255
  35         0.00000000
  36         0.00000000
  37        -0.45435551
  38         0.00000000
  39         0.00000000
  40         0.43561636
  41         0.00000000
  42         0.00000000
  43         2.29053316
  44        -0.00361873
  45        -0.00000000
  46         0.00000000
  47         0.00000002
  48        -0.00000000
  49        -0.44950112
  50        -0.00000000
  51        -0.00000000
  52        -0.00000001
  53        -0.00000000
  54         0.04826879
  55         0.00000000
  56         0.00000000
  57        -0.00000002
  58         0.00000000
  59        -0.00000000
  60        -0.00000000
Sym=    14a  
Ene=     0.0000
Spin= Alpha
Occup=    0.00000
   1         0.37460190
   2         1.70671429
   3        -0.03421682
   4        -1.53830711
   5         0.00000000
   6         0.00000000
   7        -0.18511698
   8        -0.00000000
   9        -0.00000000
  10        -0.28810499
  11         0.00000000
  12        -0.00000000
  13        -0.51776223
  14        -0.00893936
  15        -0.00000000
  16        -0.00000000
  17        -0.00000003
  18         0.00000000
  19        -0.04658081
  20        -0.00000000
  21        -0.00000000
  22        -0.00000013
  23        -0.00000000
  24        -0.01759444
  25         0.00000000
  26        -0.00000000
  27        -0.00000004
  28        -0.00000000
  29         0.00000000
  30         0.00000000
  31         0.37470247
  32         1.70700873
  33        -0.03417549
  34        -1.53685108
  35        -0.00000000
  36        -0.00000000
  37         0.18505649
  38         0.00000000
  39         0.00000000
  40         0.28792844
  41         0.00000000
  42         0.00000000
  43         0.51748021
  44        -0.00892683
  45        -0.00000000
  46        -0.00000000
  47         0.00000003
  48        -0.00000000
  49        -0.04653623
  50        -0.00000000
  51        -0.00000000
  52         0.00000010
  53         0.00000000
  54         0.01758754
  55         0.00000000
  56         0.00000000
  57        -0.00000005
  58         0.00000000
  59        -0.00000000
  60        -0.00000000
Sym=    15a  
Ene=     0.0000
Spin= Alpha
Occup=    0.00000
   1        -0.00000000
   2        -0.00000000
   3        -0.00000000
   4         0.00000000
   5         0.60422423
   6         0.00000002
   7         0.00000000
   8        -1.68428799
   9        -0.00000006
  10         0.00000000
  11        -2.66861957
  12        -0.00000009
  13         0.00000000
  14        -0.00000000
  15        -0.10465371
  16        -0.00000000
  17         0.00000000
  18         0.00000000
  19         0.00000000
  20        -1.38423466
  21        -0.00000005
  22         0.00000000
  23         0.00000000
  24         0.00000000
  25        -0.11292906
  26        -0.00000000
  27        -0.00000000
  28        -0.00000000
  29        -0.00000119
  30         0.00000000
  31        -0.00000000
  32        -0.00000000
  33        -0.00000000
  34        -0.00000000
  35        -0.60421824
  36        -0.00000002
  37        -0.00000000
  38         1.68429019
  39         0.00000006
  40        -0.00000000
  41         2.66861517
  42         0.00000009
  43         0.00000000
  44         0.00000000
  45        -0.10465567
  46        -0.00000000
  47         0.00000000
  48         0.00000000
  49         0.00000000
  50        -1.38422151
  51        -0.00000005
  52         0.00000000
  53         0.00000000
  54        -0.00000000
  55         0.11292396
  56         0.00000000
  57         0.00000000
  58         0.00000000
  59         0.00000039
  60        -0.00000000
Sym=    16a  
Ene=     0.0000
Spin= Alpha
Occup=    0.00000
   1        -0.00000000
   2        -0.00000000
   3         0.00000000
   4         0.00000000
   5        -0.00000002
   6         0.60422434
   7         0.00000000
   8         0.00000006
   9        -1.68428830
  10         0.00000000
  11         0.00000009
  12        -2.66861968
  13         0.00000000
  14         0.00000000
  15         0.00000000
  16        -0.10465372
  17        -0.00000000
  18         0.00000000
  19         0.00000000
  20         0.00000005
  21        -1.38423487
  22        -0.00000000
  23         0.00000000
  24         0.00000000
  25         0.00000000
  26        -0.11292907
  27         0.00000000
  28        -0.00000000
  29         0.00000000
  30         0.00000037
  31        -0.00000000
  32        -0.00000000
  33        -0.00000000
  34        -0.00000000
  35         0.00000002
  36        -0.60421818
  37        -0.00000000
  38        -0.00000006
  39         1.68429047
  40         0.00000000
  41        -0.00000009
  42         2.66861518
  43         0.00000000
  44        -0.00000000
  45         0.00000000
  46        -0.10465571
  47        -0.00000000
  48         0.00000000
  49        -0.00000000
  50         0.00000005
  51        -1.38422156
  52        -0.00000000
  53         0.00000000
  54        -0.00000000
  55        -0.00000000
  56         0.11292398
  57        -0.00000000
  58         0.00000000
  59        -0.00000000
  60        -0.00000039
Sym=    17a  
Ene=     0.0000
Spin= Alpha
Occup=    0.00000
   1         0.00000024
   2         0.00000030
   3         0.00000044
   4         0.00006281
   5        -0.00000000
   6         0.00000000
   7         0.00000066
   8         0.00000000
   9        -0.00000000
  10         0.00000271
  11         0.00000000
  12        -0.00000000
  13         0.00001399
  14         0.00000019
  15         0.00000000
  16        -0.00000000
  17         0.00817992
  18         0.00000000
  19         0.00000053
  20         0.00000000
  21        -0.00000000
  22         0.53167030
  23         0.00000000
  24         0.00000011
  25         0.00000000
  26        -0.00000000
  27         0.00208299
  28         0.00000000
  29         0.00000000
  30         0.00000000
  31        -0.00000032
  32        -0.00000053
  33        -0.00000105
  34        -0.00006248
  35         0.00000000
  36        -0.00000000
  37         0.00000079
  38        -0.00000000
  39         0.00000000
  40         0.00000179
  41        -0.00000000
  42         0.00000000
  43         0.00001376
  44        -0.00000009
  45         0.00000000
  46        -0.00000000
  47         0.00817898
  48         0.00000000
  49         0.00000005
  50         0.00000000
  51        -0.00000000
  52         0.53166291
  53         0.00000000
  54        -0.00000003
  55        -0.00000000
  56         0.00000000
  57        -0.00208040
  58        -0.00000000
  59        -0.00000000
  60        -0.00000000
Sym=    18a  
Ene=     0.0000
Spin= Alpha
Occup=    0.00000
   1         0.00000000
   2         0.00000000
   3         0.00000000
   4         0.00000000
   5        -0.00000000
   6        -0.00000000
   7        -0.00000000
   8         0.00000000
   9         0.00000000
  10        -0.00000000
  11         0.00000000
  12         0.00000000
  13         0.00000000
  14         0.00000000
  15         0.00000000
  16         0.00000000
  17        -0.00000000
  18         0.00817333
  19         0.00000000
  20         0.00000000
  21         0.00000000
  22        -0.00000000
  23         0.53166799
  24        -0.00000000
  25         0.00000000
  26         0.00000000
  27        -0.00000000
  28         0.00208087
  29        -0.00000000
  30         0.00000000
  31         0.00000000
  32         0.00000000
  33         0.00000000
  34        -0.00000000
  35         0.00000000
  36         0.00000000
  37        -0.00000000
  38        -0.00000000
  39        -0.00000000
  40         0.00000000
  41        -0.00000000
  42        -0.00000000
  43         0.00000000
  44        -0.00000000
  45         0.00000000
  46         0.00000000
  47        -0.00000000
  48         0.00818193
  49        -0.00000000
  50         0.00000000
  51         0.00000000
  52        -0.00000000
  53         0.53166643
  54         0.00000000
  55        -0.00000000
  56        -0.00000000
  57         0.00000000
  58        -0.00208542
  59         0.00000000
  60        -0.00000000
Sym=    19a  
Ene=     0.0000
Spin= Alpha
Occup=    0.00000
   1        -0.08762048
   2         0.01014605
   3        -0.35363661
   4       -38.56850609
   5         0.00000000
   6        -0.00000000
   7        -0.38075818
   8         0.00000000