Generated by MOKIT
SP        RHF                                                         MYBAS
Number of atoms                            I                2
Charge                                     I                0
Multiplicity                               I                1
Number of electrons                        I               14
Number of alpha electrons                  I                7
Number of beta electrons                   I                7
Number of basis functions                  I               60
Number of independent functions            I               60
Atomic numbers                             I   N=           2
           7           7
Nuclear charges                            R   N=           2
  7.00000000E+00  7.00000000E+00
Current cartesian coordinates              R   N=           6
  0.00000000E+00  0.00000000E+00  0.00000000E+00  0.00000000E+00  0.00000000E+00
  2.05980148E+00
Int Atom Types                             I   N=           2
           0           0
Number of contracted shells                I               20
Number of primitive shells                 I               52
Highest angular momentum                   I                3
Largest degree of contraction              I                8
Shell types                                I   N=          20
           0           0           0           0           1           1
           1          -2          -2          -3           0           0
           0           0           1           1           1          -2
          -2          -3
Number of primitives per shell             I   N=          20
           8           8           1           1           3           1
           1           1           1           1           8           8
           1           1           3           1           1           1
           1           1
Shell to atom map                          I   N=          20
           1           1           1           1           1           1
           1           1           1           1           2           2
           2           2           2           2           2           2
           2           2
Primitive exponents                        R   N=          52
  1.14200000E+04  1.71200000E+03  3.89300000E+02  1.10000000E+02  3.55700000E+01
  1.25400000E+01  4.64400000E+00  5.11800000E-01  1.14200000E+04  1.71200000E+03
  3.89300000E+02  1.10000000E+02  3.55700000E+01  1.25400000E+01  4.64400000E+00
  5.11800000E-01  1.29300000E+00  1.78700000E-01  2.66300000E+01  5.94800000E+00
  1.74200000E+00  5.55000000E-01  1.72500000E-01  1.65400000E+00  4.69000000E-01
  1.09300000E+00  1.14200000E+04  1.71200000E+03  3.89300000E+02  1.10000000E+02
  3.55700000E+01  1.25400000E+01  4.64400000E+00  5.11800000E-01  1.14200000E+04
  1.71200000E+03  3.89300000E+02  1.10000000E+02  3.55700000E+01  1.25400000E+01
  4.64400000E+00  5.11800000E-01  1.29300000E+00  1.78700000E-01  2.66300000E+01
  5.94800000E+00  1.74200000E+00  5.55000000E-01  1.72500000E-01  1.65400000E+00
  4.69000000E-01  1.09300000E+00
Contraction coefficients                   R   N=          52
  5.34980914E-04  4.13766310E-03  2.12509149E-02  8.25762988E-02  2.38413273E-01
  4.43431666E-01  3.55431909E-01 -8.70290176E-03 -1.98776985E-04 -1.54700349E-03
 -7.99256330E-03 -3.20255651E-02 -9.91102048E-02 -2.28292775E-01 -2.98182763E-01
  1.03700052E+00  1.00000000E+00  1.00000000E+00  3.98072123E-02  2.49002660E-01
  8.10479727E-01  1.00000000E+00  1.00000000E+00  1.00000000E+00  1.00000000E+00
  1.00000000E+00  5.34980914E-04  4.13766310E-03  2.12509149E-02  8.25762988E-02
  2.38413273E-01  4.43431666E-01  3.55431909E-01 -8.70290176E-03 -1.98776985E-04
 -1.54700349E-03 -7.99256330E-03 -3.20255651E-02 -9.91102048E-02 -2.28292775E-01
 -2.98182763E-01  1.03700052E+00  1.00000000E+00  1.00000000E+00  3.98072123E-02
  2.49002660E-01  8.10479727E-01  1.00000000E+00  1.00000000E+00  1.00000000E+00
  1.00000000E+00  1.00000000E+00
Coordinates of each shell                  R   N=          60
  0.00000000E+00  0.00000000E+00  0.00000000E+00  0.00000000E+00  0.00000000E+00
  0.00000000E+00  0.00000000E+00  0.00000000E+00  0.00000000E+00  0.00000000E+00
  0.00000000E+00  0.00000000E+00  0.00000000E+00  0.00000000E+00  0.00000000E+00
  0.00000000E+00  0.00000000E+00  0.00000000E+00  0.00000000E+00  0.00000000E+00
  0.00000000E+00  0.00000000E+00  0.00000000E+00  0.00000000E+00  0.00000000E+00
  0.00000000E+00  0.00000000E+00  0.00000000E+00  0.00000000E+00  0.00000000E+00
  0.00000000E+00  0.00000000E+00  2.05980148E+00  0.00000000E+00  0.00000000E+00
  2.05980148E+00  0.00000000E+00  0.00000000E+00  2.05980148E+00  0.00000000E+00
  0.00000000E+00  2.05980148E+00  0.00000000E+00  0.00000000E+00  2.05980148E+00
  0.00000000E+00  0.00000000E+00  2.05980148E+00  0.00000000E+00  0.00000000E+00
  2.05980148E+00  0.00000000E+00  0.00000000E+00  2.05980148E+00  0.00000000E+00
  0.00000000E+00  2.05980148E+00  0.00000000E+00  0.00000000E+00  2.05980148E+00
Num ILSW                                   I              100
ILSW                                       I   N=         100
           0           0           0           0           2           0
           0           0           0           0           0          -1
           5           0           0           0           0           0
           0           0           0           0           0           0
           1           1           0           0           0           0
           0           0      100000           0          -1           0
           0           0           0           0           0           0
           0           0           0           1           0           0
           0 -2000000000           1           0           0           0
           0           0           4          52           0           0
           0           0           0           0           0           0
           0           0           0           2           0           1
           0           0           0           0           0           0
           0           0           0           0           0           0
           0           0           0           0           0           0
           0           0           0           0           0           0
           0           0           0           0
Virial Ratio                               R      0.000000000000000E+00
Total Energy                               R      0.000000000000000E+00
Alpha Orbital Energies                     R   N=          60
 -1.56788991E+01 -1.56751945E+01 -1.47524143E+00 -7.74931177E-01 -6.33059313E-01
 -6.15342704E-01 -6.15342704E-01  1.65732750E-01  1.65732750E-01  4.26258249E-01
  5.60769681E-01  5.61241259E-01  5.61241259E-01  6.73196851E-01  7.33339329E-01
  7.33339329E-01  9.29348252E-01  1.04790667E+00  1.04790667E+00  1.10052688E+00
  1.34817902E+00  1.34817902E+00  1.51589573E+00  1.51589573E+00  1.93115361E+00
  1.94253777E+00  1.94253777E+00  2.26716986E+00  3.16522726E+00  3.16522726E+00
  3.30750642E+00  3.51710874E+00  3.51710874E+00  3.75115241E+00  3.83149558E+00
  3.83149558E+00  3.95434411E+00  3.95434411E+00  3.99519360E+00  3.99519360E+00
  4.40201099E+00  4.45392588E+00  4.45392588E+00  4.77379248E+00  4.77379248E+00
  4.87554254E+00  4.87554254E+00  4.90947421E+00  4.90947421E+00  5.04646070E+00
  5.32704937E+00  5.32704937E+00  5.43151234E+00  5.43151234E+00  5.54689843E+00
  6.20889311E+00  6.89536265E+00  6.89536265E+00  7.07392166E+00  1.70026181E+01
Alpha MO coefficients                      R   N=        3600
 -6.91113672E-01  9.23140654E-04 -2.95436640E-02  1.35203748E-03  3.57128643E-17
 -6.87263892E-16 -4.05200312E-03 -2.57730818E-17 -7.33823925E-16 -2.27725378E-03
 -8.37949152E-19 -5.12338462E-16 -1.37392645E-03 -6.33698440E-04 -1.20010994E-18
 -7.90203819E-17  1.12541064E-18  2.44267673E-19  3.02918636E-04 -2.32625458E-18
 -5.27093482E-17  1.22179016E-19 -5.48593633E-19  1.92361412E-04  2.16626489E-20
 -5.40029037E-18  2.57712025E-19 -5.51732978E-19  1.07785607E-19 -2.02808408E-19
 -6.91113672E-01  9.23140656E-04 -2.95436640E-02  1.35203748E-03 -7.21203339E-18
 -6.85486444E-16  4.05200312E-03 -2.41850177E-18 -8.28668996E-16  2.27725379E-03
 -4.53550931E-18 -4.68765077E-16  1.37392645E-03 -6.33698441E-04  8.03760137E-19
  5.47503643E-17  1.61124607E-18 -5.73835952E-19  3.02918636E-04  9.67274937E-20
  9.98471587E-17 -1.32472442E-19 -3.07615646E-19 -1.92361412E-04 -2.54028801E-19
 -2.20425853E-17 -5.05731940E-20 -2.75390254E-19 -3.75967098E-20 -9.20752422E-21
 -6.90820519E-01  5.32303381E-03 -2.82800472E-02 -1.58670484E-03  2.26325130E-16
  5.42325005E-17 -2.78321510E-03  2.82921312E-16  5.21879030E-16 -1.47237846E-03
  1.50256801E-16  2.40042011E-16 -2.63963943E-03 -6.80856924E-04  1.69464921E-17
  4.78578641E-17  7.86775930E-19  6.90800127E-19 -3.34604595E-04  3.53648309E-17
 -3.71096866E-18 -5.63436418E-19  3.55741713E-19 -3.95528056E-04  7.49258373E-18
 -6.21197227E-18  2.59047310E-19 -7.68305775E-20  4.50180928E-20 -1.21574589E-19
  6.90820519E-01 -5.32303381E-03  2.82800472E-02  1.58670484E-03  2.02401726E-16
  3.29308276E-16 -2.78321510E-03  2.59162673E-16  3.55807425E-16 -1.47237846E-03
  1.53323255E-16  1.93362841E-16 -2.63963943E-03  6.80856924E-04 -1.73729010E-17
 -2.36739054E-17 -1.46525797E-18  5.82324627E-19  3.34604595E-04 -3.18334983E-17
 -3.81505537E-17  2.38004030E-19  2.82766821E-19 -3.95528056E-04  6.91152747E-18
  8.51156345E-18  4.09589745E-20  1.16135037E-19  1.85603889E-20  1.59224657E-20
 -1.84277708E-02  3.78716746E-01  9.66626738E-02  1.89687279E-01 -3.34600667E-16
 -9.16435406E-17  2.30117998E-02 -3.51399033E-16  2.57837170E-16  9.40528372E-03
 -3.23228588E-16  4.36289072E-16 -3.99658169E-02  1.20727656E-02 -3.61027576E-17
 -8.10189599E-18  5.40258795E-18 -1.58877105E-17  1.15637230E-02 -4.98186635E-17
  1.26003725E-17  4.18035237E-17 -2.33788295E-17  5.12118068E-03 -2.54392097E-17
  8.44143844E-18 -3.94134470E-18 -2.88510117E-18 -2.21568481E-18  3.21030065E-18
 -1.84277708E-02  3.78716746E-01  9.66626738E-02  1.89687279E-01 -4.32197893E-16
  2.15604411E-17 -2.30117998E-02 -5.86896170E-16  1.19399314E-16 -9.40528372E-03
 -3.44759150E-16 -1.50769933E-16  3.99658169E-02  1.20727656E-02  3.04064998E-17
 -1.32597982E-17  4.82222509E-18  2.25612564E-18  1.15637230E-02  8.36407180E-17
 -5.55907572E-17 -2.84058377E-17 -2.10486777E-18 -5.12118068E-03 -1.46944767E-17
  4.72881033E-18  4.90839956E-19 -6.69352011E-18  3.53065290E-19  5.46785205E-19
  1.29538459E-02  3.79113291E-01  1.00445560E-01  3.07009123E-01 -6.54158719E-16
  7.15781925E-16 -1.18781552E-01 -9.44967183E-16  5.22393415E-16 -1.50307494E-01
 -3.15567676E-16  3.86541105E-17 -7.68383371E-02 -3.43139689E-03 -2.82916882E-17
  8.13888360E-17 -3.14379893E-18 -1.46025492E-17 -8.06277323E-03 -6.27724767E-17
  8.66129723E-17 -2.92121143E-18  3.45392465E-18  2.04929735E-04 -1.21755199E-17
  1.01954285E-17  4.57441138E-18  3.12207921E-18 -6.16205625E-19  1.07368411E-18
 -1.29538459E-02 -3.79113291E-01 -1.00445560E-01 -3.07009123E-01 -3.50129105E-16
  6.02880874E-16 -1.18781552E-01 -4.43897881E-16  6.63745906E-16 -1.50307494E-01
 -2.28350553E-16  5.83762345E-16 -7.68383371E-02  3.43139689E-03  3.91036993E-17
 -4.95605041E-17 -1.96046419E-18 -2.75488578E-19  8.06277323E-03  5.46336472E-17
 -5.69824003E-17  2.72454446E-17  3.48473965E-18  2.04929735E-04 -1.34805305E-17
  1.36097073E-17 -5.58870399E-18  7.40939096E-18 -5.59599891E-19  3.18441293E-19
  1.68748984E-02 -4.63330523E-03  1.69872577E-03  2.15813248E-01 -1.51812210E-15
  7.85101103E-16 -2.86993158E-01 -1.17441410E-15  1.15666891E-15 -3.26479477E-01
 -8.23733089E-16  1.01472173E-15 -1.44457143E-01 -2.45210409E-02 -1.15212706E-16
 -1.05437357E-17  1.59566645E-17 -4.54754461E-17 -2.16484543E-02 -1.51179765E-16
  3.92782664E-17  5.41388426E-17 -7.03920707E-17 -7.53133329E-03 -4.77936481E-17
  4.08190897E-18 -2.87084096E-19 -2.31330909E-17  3.54631121E-19 -5.95913185E-19
  1.68748984E-02 -4.63330523E-03  1.69872577E-03  2.15813248E-01 -1.12895039E-15
  1.83392799E-16  2.86993158E-01 -1.51099884E-15  2.93019696E-16  3.26479477E-01
 -9.37261311E-16 -3.22457436E-16  1.44457143E-01 -2.45210409E-02  1.12068657E-16
 -3.12708067E-17  1.23232208E-17 -5.94732431E-19 -2.16484543E-02  2.20672428E-16
 -1.14109058E-16 -5.55900891E-17 -1.17125496E-17  7.53133329E-03 -5.16081986E-17
  1.10227319E-17  6.58693727E-18 -2.22948459E-17 -4.67319922E-19  6.52765949E-19
  9.75155242E-16  7.82426388E-16  6.49103537E-16  3.24375934E-15  1.09321262E-01
 -2.04266576E-01 -1.50896984E-15  1.44019875E-01 -2.69100871E-01 -1.08677873E-15
  8.35069622E-02 -1.56032605E-01 -1.04086271E-15 -2.03177461E-17  9.47355416E-03
 -1.77013185E-02  2.46335583E-16  5.15589142E-16  4.54370956E-16  1.80905660E-02
 -3.38021893E-02 -4.30688838E-16 -2.91826994E-16 -2.90649195E-17  3.87681545E-03
 -7.24382252E-03  3.27255515E-17 -3.42715039E-17 -1.62433242E-16 -5.13880879E-17
  1.64360957E-15 -1.27245677E-15  2.35911108E-17  2.54397785E-17  1.09321262E-01
 -2.04266576E-01  6.99670813E-16  1.44019875E-01 -2.69100871E-01  1.46465126E-15
  8.35069622E-02 -1.56032605E-01  3.97292771E-16  1.33257792E-17 -9.47355416E-03
  1.77013185E-02 -6.89810557E-17  9.21593868E-18 -2.81888514E-16 -1.80905660E-02
  3.38021893E-02  3.12772549E-17 -5.92670776E-17 -1.69438303E-16  3.87681545E-03
 -7.24382252E-03 -2.22056244E-17  3.16726486E-17  4.43471601E-18 -1.07160985E-16
 -3.54091694E-16 -1.34774015E-15 -1.03718558E-16  8.24619603E-15 -2.04266576E-01
 -1.09321262E-01  1.54768225E-15 -2.69100871E-01 -1.44019875E-01  1.84764191E-15
 -1.56032605E-01 -8.35069622E-02  4.98991793E-15 -1.49126313E-16 -1.77013185E-02
 -9.47355416E-03 -4.68737246E-17  7.56256698E-17  1.12858105E-15 -3.38021893E-02
 -1.80905660E-02  4.25147004E-17 -3.10285781E-16  6.88096907E-16 -7.24382252E-03
 -3.87681545E-03  4.74069523E-17  2.09680452E-17  6.83281150E-17 -7.14215543E-17
  1.83064801E-15 -5.94415375E-16 -8.56070589E-16 -8.95591012E-15 -2.04266576E-01
 -1.09321262E-01 -1.07549109E-15 -2.69100871E-01 -1.44019875E-01  5.33971748E-16
 -1.56032605E-01 -8.35069622E-02  3.11252991E-15 -8.92762295E-17  1.77013185E-02
  9.47355416E-03 -5.88814993E-17 -6.24130658E-17 -3.59867528E-16  3.38021893E-02
  1.80905660E-02 -3.30956613E-17 -2.58801223E-17  4.11250891E-16 -7.24382252E-03
 -3.87681545E-03  3.33266786E-18  3.43432461E-17  1.07710060E-16 -5.82388981E-17
 -4.95322887E-16 -1.09326868E-15  2.55317471E-16  2.18185468E-15 -3.56302955E-01
 -1.05628522E-01  1.81659739E-16 -4.34824660E-01 -1.28906835E-01 -3.65306325E-15
 -1.05574288E-01 -3.12982419E-02  2.83804116E-15  1.83718382E-15  1.54532004E-02
  4.58121017E-03  5.97173299E-16  5.81940729E-16 -2.58016125E-15  6.70770624E-03
  1.98854679E-03  2.97095293E-16 -2.12473075E-15 -2.67113184E-15  7.07415512E-04
  2.09718314E-04  6.35895033E-17  2.60144307E-17  1.36732385E-16 -1.39486281E-16
  8.60874706E-15  1.31294765E-14 -5.73018986E-15 -8.78232634E-15  3.56302955E-01
  1.05628522E-01 -1.36969119E-15  4.34824660E-01  1.28906835E-01  2.51925142E-16
  1.05574288E-01  3.12982419E-02  1.10015363E-16 -7.14394353E-16  1.54532004E-02
  4.58121017E-03  6.13044387E-17  7.66319567E-17 -7.10640780E-16  6.70770624E-03
  1.98854679E-03 -2.55252985E-16  6.00650339E-17 -1.48642022E-16 -7.07415512E-04
 -2.09718314E-04 -2.26286111E-16  3.48665136E-17 -1.68208319E-16  2.62998157E-17
 -6.71987250E-16 -9.89191341E-16  2.17016837E-16 -1.20047484E-14 -1.05628522E-01
  3.56302955E-01  1.07532559E-15 -1.28906835E-01  4.34824660E-01 -3.71172027E-15
 -3.12982419E-02  1.05574288E-01 -2.93733511E-15  1.90912124E-15  4.58121017E-03
 -1.54532004E-02  7.74680209E-17  2.96761646E-15 -2.36844171E-15  1.98854679E-03
 -6.70770624E-03  3.91479089E-16 -5.57850777E-16  6.04402136E-16  2.09718314E-04
 -7.07415512E-04  6.28997245E-17 -1.41208457E-16  1.33167240E-16  1.48704322E-16
 -2.11236937E-16 -3.55361529E-16  7.46634342E-16  1.16144345E-14  1.05628522E-01
 -3.56302955E-01  4.48398845E-16  1.28906835E-01 -4.34824660E-01 -3.12795451E-15
  3.12982419E-02 -1.05574288E-01 -5.48199067E-15  3.18537050E-16  4.58121017E-03
 -1.54532004E-02 -2.77673773E-16  7.54103108E-16  9.46173003E-16  1.98854679E-03
 -6.70770624E-03 -3.62385852E-16  9.91717884E-16 -3.81861000E-16 -2.09718314E-04
  7.07415512E-04  5.25186154E-17 -2.82154771E-17 -2.82604442E-17 -2.17507675E-16
  3.31040995E-02  3.48257059E-01  1.63358626E-01  4.22432969E-01  9.73079846E-16
  2.27149530E-16  5.09377396E-01 -8.94109266E-16 -2.18217617E-15  4.99515656E-01
 -1.48152388E-15  2.14814515E-15  5.77832826E-02 -5.02524614E-02  3.46943835E-16
 -3.29083870E-16 -1.11899002E-16  6.61065212E-17 -5.60160015E-02 -1.44014516E-15
  1.35460094E-15  7.75176352E-18 -2.41532358E-16 -1.85308320E-02 -3.44546857E-16
  2.13078478E-15 -2.84200418E-16 -4.23655064E-16  7.05576973E-18 -5.54331471E-18
 -3.31040995E-02 -3.48257059E-01 -1.63358626E-01 -4.22432969E-01  6.93594792E-16
 -7.63382606E-16  5.09377396E-01  8.68390841E-16 -1.37031088E-15  4.99515656E-01
  1.27787739E-15  6.78149889E-16  5.77832826E-02  5.02524614E-02  2.98701303E-16
 -1.00320977E-16  1.91736739E-16 -9.56190296E-17  5.60160015E-02 -2.73464382E-16
 -5.88228420E-16 -1.89026875E-16  5.01068990E-17 -1.85308320E-02  3.37355904E-17
  3.38976586E-18  1.98203866E-16 -4.92491261E-16 -5.57363652E-18  2.50339557E-18
  8.89066062E-03 -4.76542731E-01 -5.01217870E-01  8.03916697E-01 -8.60911378E-16
  3.63732559E-15  1.90802001E-01  7.88456000E-16 -4.19770281E-15  1.20440448E-01
 -1.73485030E-15  2.28573608E-15 -2.16821243E-01 -5.74412530E-02  1.71360849E-15
 -1.30728503E-16 -3.19177902E-16 -2.12724547E-16 -2.82459295E-02 -1.05384291E-14
  1.50104945E-15 -5.00790235E-16 -1.03094441E-16 -9.39175873E-03 -1.99904162E-15
  3.47658252E-15  1.86140061E-16  3.60853420E-16 -3.15083946E-17  3.80994617E-17
  8.89066062E-03 -4.76542731E-01 -5.01217870E-01  8.03916697E-01  3.17917245E-15
 -2.62096780E-16 -1.90802001E-01  1.86213248E-15 -9.26287689E-16 -1.20440448E-01
  3.61904060E-15 -1.07081592E-16  2.16821243E-01 -5.74412530E-02  1.38472938E-15
 -2.27583156E-16 -4.96184123E-16  6.85092359E-18 -2.82459295E-02  6.37337172E-16
 -3.30274685E-16 -6.00697046E-16 -3.42797231E-16  9.39175873E-03 -1.47625680E-16
  1.34491869E-16 -1.91960690E-16  5.63440544E-16  1.98664024E-18 -7.95397833E-18
 -3.82308429E-02  4.94218250E-01  5.90607027E-01 -9.03908335E-01 -2.75637232E-14
  1.81850173E-14 -2.03391224E-01  6.41087211E-15 -8.82558481E-17  1.43255963E-01
  2.47333224E-14 -2.01258820E-14  2.42085316E-01  1.65105149E-02 -1.17407755E-14
  6.51520376E-15 -9.28653269E-16 -1.38864610E-16  5.53950647E-02 -2.96586274E-14
  3.20376048E-15 -1.84781666E-15 -3.22016931E-17  1.31491987E-02 -8.19964247E-15
 -2.13574643E-15 -2.16758367E-16  1.59700995E-16  2.15305132E-18  8.01537897E-18
  3.82308429E-02 -4.94218250E-01 -5.90607027E-01  9.03908335E-01 -1.33450713E-14
  9.43153898E-15 -2.03391224E-01 -2.09963566E-15  8.89214609E-15  1.43255963E-01
  3.04242876E-14 -1.48450691E-14  2.42085316E-01 -1.65105149E-02  1.59910346E-14
 -4.37556826E-15 -1.21812386E-15 -5.60358528E-17 -5.53950647E-02  1.47627703E-14
 -3.14178939E-15 -2.20400055E-15 -1.63514626E-16  1.31491987E-02 -4.88022089E-15
  2.08419347E-15  2.52462484E-16  2.38457735E-16  7.28948889E-18 -2.59777832E-17
  8.83652883E-14  8.96763695E-14 -8.28238319E-14 -7.17194202E-14 -2.74420698E-01
  7.99499645E-03 -2.12222113E-13 -3.25564942E-02  9.48503728E-04  7.34045436E-14
  4.08553069E-01 -1.19028206E-02  2.86402102E-13 -1.83719017E-13 -2.37980319E-01
  6.93333928E-03  1.69467240E-15  1.07682620E-14 -2.30464381E-13 -2.31210743E-01
  6.73611387E-03  2.38335550E-16  4.82228576E-14 -6.72984333E-14 -7.60608571E-02
  2.21596362E-03  3.46261016E-16  5.15290328E-15 -1.17762513E-16  1.22528788E-15
  1.12222901E-13  2.07288003E-13 -1.75216015E-14 -2.08540842E-13 -2.74420698E-01
  7.99499645E-03  2.57423840E-13 -3.25564942E-02  9.48503728E-04 -1.34458711E-13
  4.08553069E-01 -1.19028206E-02 -3.18259141E-13 -1.84925542E-13  2.37980319E-01
 -6.93333928E-03  1.65389927E-15  1.69216218E-14 -2.21480266E-13  2.31210743E-01
 -6.73611387E-03  1.53836431E-15  3.01055876E-14  6.50040637E-14 -7.60608571E-02
  2.21596362E-03 -3.68604149E-16 -5.67133487E-15  1.78631531E-16 -3.71477394E-17
 -3.87619318E-14 -7.87826132E-14 -4.33568859E-15  3.90848854E-14  7.99499645E-03
  2.74420698E-01  9.99080326E-14  9.48503728E-04  3.25564942E-02 -8.98765864E-14
 -1.19028206E-02 -4.08553069E-01 -1.04049270E-13  6.39725116E-14  6.93333928E-03
  2.37980319E-01 -3.28522588E-15  2.96275828E-14  6.06282751E-14  6.73611387E-03
  2.31210743E-01  4.30418843E-15  3.23675172E-14  2.64853927E-14  2.21596362E-03
  7.60608571E-02  8.65747433E-17  4.21552406E-16 -5.22178441E-15  1.83988087E-14
 -1.28928430E-14  3.24376277E-15  2.57931284E-14  3.82958536E-14  7.99499645E-03
  2.74420698E-01 -6.90726451E-14  9.48503728E-04  3.25564942E-02 -6.37921248E-16
 -1.19028206E-02 -4.08553069E-01  8.41746563E-14  6.50402486E-14 -6.93333928E-03
 -2.37980319E-01 -6.68308555E-16  2.17089806E-14  9.02249465E-14 -6.73611387E-03
 -2.31210743E-01  4.12651088E-15  3.69314313E-14 -2.08947007E-14  2.21596362E-03
  7.60608571E-02 -1.01741533E-15 -6.44965391E-15  6.49903624E-17  8.85615880E-17
  1.09375742E-01  1.62358132E-01 -4.77782145E-02 -1.62244883E-01  1.94978968E-13
  6.10024028E-14 -3.00275337E-01  4.29238380E-14  9.39966867E-15  1.40739485E-01
 -3.20330929E-13 -9.27315494E-14  3.76924055E-01 -2.43640973E-01  1.85520900E-13
  5.79412271E-14  8.67793340E-16  8.76131470E-16 -2.86371394E-01  1.86892815E-13
  6.11219084E-14  9.96850390E-16  6.07808075E-16 -8.37094764E-02  6.15500628E-14
  1.76008796E-14  2.43743069E-16  2.39276661E-16 -4.90220911E-17  5.25014530E-17
  1.09375742E-01  1.62358132E-01 -4.77782145E-02 -1.62244883E-01  2.18003554E-13
  6.51772598E-14  3.00275337E-01  1.68750149E-14  5.44719261E-15 -1.40739485E-01
 -3.23912160E-13 -1.02777509E-13 -3.76924055E-01 -2.43640973E-01 -1.92338581E-13
 -5.86832069E-14  6.77192942E-16  5.00667689E-16 -2.86371394E-01 -1.87269797E-13
 -5.72582660E-14  1.46983903E-15  7.21472108E-16  8.37094764E-02  6.01385094E-14
  1.82560917E-14 -3.72211656E-16  7.46023996E-17 -2.51962508E-17  3.67264650E-17
  5.98119566E-15  1.26317589E-14 -1.04019874E-15 -5.25218580E-14  9.96603615E-15
 -8.35544369E-15  1.91563283E-16  1.99884862E-15  2.72630216E-16  4.84730275E-15
 -1.12416569E-14  5.86501283E-15 -2.14557475E-14  9.72399911E-16 -1.91877590E-15
 -3.69420955E-15  2.32639021E-01  1.52895770E-02  3.12232155E-15 -1.03144044E-15
  2.46175354E-15  4.50325093E-01  2.95964114E-02 -6.86448897E-16  2.42764881E-15
  7.80053118E-16  8.18333093E-02  5.37827522E-03 -2.06856320E-16 -3.73284751E-15
 -1.26461214E-14 -2.35932241E-14  4.17219384E-15  5.91536193E-14  5.04895143E-15
 -5.81670730E-15 -2.51952352E-15  1.56764455E-15 -4.24246322E-15  5.68614254E-15
 -2.05058323E-15  7.65099536E-15 -2.12195755E-14 -2.45785240E-15  1.08327409E-15
  1.16805224E-15  2.32639021E-01  1.52895770E-02  3.43684073E-15  2.32441992E-15
 -1.17573269E-15  4.50325093E-01  2.95964114E-02 -3.07537229E-16  3.84288723E-16
 -4.11007408E-16 -8.18333093E-02 -5.37827522E-03  1.08321246E-16 -1.45898279E-16
 -2.66950337E-14 -4.73957938E-14  1.00621663E-14  6.58055838E-14 -1.98376013E-14
  2.90981654E-14  2.17828682E-15  1.30463032E-15  2.82022363E-14 -3.53425801E-14
  2.73984661E-14 -6.04756130E-14  2.66190461E-14 -1.03275987E-14 -1.25182015E-14
 -3.79450494E-15  1.52895770E-02 -2.32639021E-01 -8.97301020E-15 -5.93523397E-15
  5.31445362E-15  2.95964114E-02 -4.50325093E-01  4.93351303E-15 -6.13967173E-15
  4.88544049E-15  5.37827522E-03 -8.18333093E-02 -3.22725423E-15 -1.45212363E-15
  4.86963708E-14  7.91518203E-14 -3.10767326E-14 -7.83852101E-14 -2.54391266E-14
  4.33451549E-14  8.83951947E-15 -1.19130629E-14  1.32446664E-14 -4.40937910E-14
  4.04661874E-14 -5.07965561E-14  3.86804929E-14  6.30744019E-15  2.31642257E-14
 -1.18154674E-14  1.52895770E-02 -2.32639021E-01  5.84792403E-15  2.31653238E-14
 -1.26904570E-14  2.95964114E-02 -4.50325093E-01  8.73946890E-17 -4.47300361E-15
  8.72062060E-15 -5.37827522E-03  8.18333093E-02 -1.26355176E-17 -6.03397168E-17
 -2.54905686E-14 -4.57337062E-14  1.34285027E-15 -1.14232477E-13  3.77828427E-01
  8.58316775E-04 -2.87259825E-14  2.22035281E-01  5.04399863E-04 -1.77414671E-14
 -3.29303317E-01 -7.48081777E-04 -8.27981373E-14 -1.93226791E-14 -2.28944748E-01
 -5.20096169E-04 -2.74135394E-15 -9.16466270E-15 -4.62370106E-14 -3.11699863E-01
 -7.08091826E-04  1.62369950E-15 -7.68666469E-16 -5.17925752E-15  6.15479509E-03
  1.39819121E-05 -5.60302176E-15  5.02907409E-15 -1.36673567E-14 -3.84074220E-15
  9.22076795E-15  3.91392227E-14  2.81722924E-14  1.18000735E-13  3.77828427E-01
  8.58316775E-04  1.12907949E-14  2.22035281E-01  5.04399863E-04 -8.17846948E-14
 -3.29303317E-01 -7.48081777E-04 -1.68377354E-14 -1.58022660E-14  2.28944748E-01
  5.20096169E-04 -5.58346669E-15  6.28379571E-16  4.15931946E-14  3.11699863E-01
  7.08091826E-04 -9.20184496E-15 -3.42252185E-15 -1.39192197E-14  6.15479509E-03
  1.39819121E-05  1.05965695E-15  1.77787086E-15 -1.47390820E-16  5.19577745E-17
 -2.21864022E-14 -1.80328469E-14  4.85536429E-14  2.30663742E-13  8.58316775E-04
 -3.77828427E-01 -6.43122701E-15  5.04399863E-04 -2.22035281E-01  4.07650915E-14
 -7.48081777E-04  3.29303317E-01  7.49089014E-14  4.49610919E-15 -5.20096169E-04
  2.28944748E-01 -7.08841822E-15  4.12831117E-15 -8.08867374E-16 -7.08091826E-04
  3.11699863E-01 -1.79118346E-15  9.60181571E-16  1.34312275E-14  1.39819121E-05
 -6.15479509E-03 -9.85482244E-17 -7.37117439E-15 -9.53684349E-17 -6.96548656E-15
  4.10050941E-14  5.56395195E-14 -3.67635578E-14 -2.47407324E-13  8.58316775E-04
 -3.77828427E-01 -1.53455890E-14  5.04399863E-04 -2.22035281E-01  3.94467992E-14
 -7.48081777E-04  3.29303317E-01  1.16357125E-13  1.92537735E-14  5.20096169E-04
 -2.28944748E-01 -3.25170378E-16 -2.53577337E-14 -4.91295626E-14  7.08091826E-04
 -3.11699863E-01 -4.82571576E-16 -4.42242862E-14  1.01233598E-14  1.39819121E-05
 -6.15479509E-03  1.16670025E-16  6.61436989E-15 -7.52431309E-17 -1.60771018E-16
 -2.03799936E-16  7.87322283E-15  1.87209077E-14 -2.79353024E-13  2.77600596E-01
 -4.12992605E-01 -4.21664177E-14 -9.23107828E-02  1.37332813E-01  4.27193098E-14
 -9.60503792E-02  1.42896294E-01 -1.53751942E-13 -4.62887844E-14  1.70834502E-01
 -2.54154302E-01 -3.36289400E-14 -8.43443682E-14 -9.64824445E-14  2.34067638E-01
 -3.48227651E-01 -2.06603722E-14 -1.89741953E-13  2.29173055E-14 -3.78223023E-02
  5.62690836E-02 -2.59262566E-15  3.61074228E-14  1.02514044E-14 -2.30407592E-14
 -1.03609954E-13 -1.20367079E-13  1.36675161E-13  3.17367928E-13 -2.77600596E-01
  4.12992605E-01 -9.53827589E-14  9.23107828E-02 -1.37332813E-01  7.06454233E-14
  9.60503792E-02 -1.42896294E-01 -1.26427952E-13  1.67641269E-14  1.70834502E-01
 -2.54154302E-01  1.85645012E-14  1.24176016E-13  3.39838954E-14  2.34067638E-01
 -3.48227651E-01  2.68546815E-14  1.73743917E-13 -8.70954211E-15  3.78223023E-02
 -5.62690836E-02  1.83085158E-15  2.28027575E-15  3.02600873E-16 -6.44291632E-16
 -1.04818700E-13 -1.46962616E-13  8.47689233E-14 -2.78931897E-13 -4.12992605E-01
 -2.77600596E-01  1.28350832E-13  1.37332813E-01  9.23107828E-02 -2.52541579E-13
  1.42896294E-01  9.60503792E-02 -5.12418035E-14  8.70894372E-14 -2.54154302E-01
 -1.70834502E-01  5.56596793E-14 -3.25257407E-14  1.24093406E-14 -3.48227651E-01
 -2.34067638E-01  6.35111675E-14  2.86538890E-14 -2.22268391E-14  5.62690836E-02
  3.78223023E-02 -5.64303425E-15 -6.17251785E-15  5.68117906E-17  1.17167025E-14
  1.45167177E-13  1.88485536E-13 -1.42078428E-13  2.50434550E-13  4.12992605E-01
  2.77600596E-01  8.31247844E-14 -1.37332813E-01 -9.23107828E-02 -1.63292519E-13
 -1.42896294E-01 -9.60503792E-02 -1.52136215E-13 -4.38640359E-14 -2.54154302E-01
 -1.70834502E-01 -4.93829746E-14 -4.87258180E-15 -8.27511573E-15 -3.48227651E-01
 -2.34067638E-01 -6.52159325E-14 -6.06345926E-15 -3.53383745E-14 -5.62690836E-02
 -3.78223023E-02 -3.40128477E-15  6.97447640E-16  9.21189547E-17  4.08173361E-16
 -1.70091380E-01 -5.21816378E-02  3.90521950E-01 -7.07642691E-01  9.00296894E-14
  1.42495082E-14  4.89688998E-01  2.15412334E-14 -2.33591139E-14 -3.97511804E-01
 -5.70666680E-14  2.10875223E-14 -2.28484035E-01  3.34172413E-01  8.21652994E-14
  4.12466239E-15 -1.46256452E-15  3.57496184E-15  3.57811163E-01  1.04023414E-13
  1.30936110E-14 -1.47546187E-15 -2.41472645E-15 -7.07258649E-02 -2.66125045E-14
 -7.83185799E-16  3.25488314E-16  6.08056019E-17  5.24253761E-17 -6.71594776E-17
  1.70091380E-01  5.21816378E-02 -3.90521950E-01  7.07642691E-01 -1.10514054E-13
  1.14264841E-15  4.89688998E-01  5.09907888E-14 -1.38008642E-14 -3.97511804E-01
  8.37519520E-16  3.52518761E-15 -2.28484035E-01 -3.34172413E-01  8.57945717E-14
  3.42662894E-15  3.22445121E-16 -1.74884923E-16 -3.57811163E-01  1.19341708E-13
  2.48305986E-15  7.64514436E-16 -1.15681944E-15 -7.07258649E-02  2.55351107E-14
 -7.51973942E-16  8.25281965E-17  9.94162998E-16 -2.37382470E-17  6.10046001E-17
  2.34905549E-14  4.08214010E-14 -1.29934914E-14 -1.16995203E-13  6.87266976E-14
 -4.69923659E-15 -3.46790799E-15 -7.50039477E-15 -3.90626072E-15  2.64538045E-14
 -4.09483458E-14 -6.04194634E-15 -4.50617794E-14  9.92437209E-16  5.65065418E-14
 -3.18236900E-14  3.92120353E-01  8.30386830E-02  1.51926066E-14  7.31618481E-14
 -4.65241694E-15  4.97520995E-01  1.05359204E-01 -1.33672055E-14 -1.50141702E-14
  4.28199832E-15 -3.58829842E-02 -7.59888061E-03  3.45789215E-15 -1.76654836E-15
 -7.39509920E-14 -1.13215175E-13  5.52306026E-14  1.47297798E-13 -8.83227761E-14
  1.94311029E-15 -3.13807753E-15  2.67584488E-14  1.04774776E-14  2.42665147E-14
  3.34942418E-14 -2.11342428E-15 -5.85754845E-14 -9.83249797E-15  5.18244518E-14
 -1.39601469E-14 -3.92120353E-01 -8.30386830E-02  9.07062321E-15  7.25117197E-14
 -1.75616046E-14 -4.97520995E-01 -1.05359204E-01  2.86247509E-17  1.38449130E-14
 -3.76834613E-15 -3.58829842E-02 -7.59888061E-03  2.02842431E-18  3.81259576E-17