 Entering Gaussian System, Link 0=g16
 Initial command:
 /public/home/zyli/senxu/soft/g16/l1.exe "/tmp/Gau-9376.inp" -scrdir="/tmp/"
 Entering Link 1 = /public/home/zyli/senxu/soft/g16/l1.exe PID=      9379.
  
 Copyright (c) 1988-2019, Gaussian, Inc.  All Rights Reserved.
  
 This is part of the Gaussian(R) 16 program.  It is based on
 the Gaussian(R) 09 system (copyright 2009, Gaussian, Inc.),
 the Gaussian(R) 03 system (copyright 2003, Gaussian, Inc.),
 the Gaussian(R) 98 system (copyright 1998, Gaussian, Inc.),
 the Gaussian(R) 94 system (copyright 1995, Gaussian, Inc.),
 the Gaussian 92(TM) system (copyright 1992, Gaussian, Inc.),
 the Gaussian 90(TM) system (copyright 1990, Gaussian, Inc.),
 the Gaussian 88(TM) system (copyright 1988, Gaussian, Inc.),
 the Gaussian 86(TM) system (copyright 1986, Carnegie Mellon
 University), and the Gaussian 82(TM) system (copyright 1983,
 Carnegie Mellon University). Gaussian is a federally registered
 trademark of Gaussian, Inc.
  
 This software contains proprietary and confidential information,
 including trade secrets, belonging to Gaussian, Inc.
  
 This software is provided under written license and may be
 used, copied, transmitted, or stored only in accord with that
 written license.
  
 The following legend is applicable only to US Government
 contracts under FAR:
  
                    RESTRICTED RIGHTS LEGEND
  
 Use, reproduction and disclosure by the US Government is
 subject to restrictions as set forth in subparagraphs (a)
 and (c) of the Commercial Computer Software - Restricted
 Rights clause in FAR 52.227-19.
  
 Gaussian, Inc.
 340 Quinnipiac St., Bldg. 40, Wallingford CT 06492
  
  
 ---------------------------------------------------------------
 Warning -- This program may not be used in any manner that
 competes with the business of Gaussian, Inc. or will provide
 assistance to any competitor of Gaussian, Inc.  The licensee
 of this program is prohibited from giving any competitor of
 Gaussian, Inc. access to this program.  By using this program,
 the user acknowledges that Gaussian, Inc. is engaged in the
 business of creating and licensing software in the field of
 computational chemistry and represents and warrants to the
 licensee that it is not a competitor of Gaussian, Inc. and that
 it will not use this program in any manner prohibited above.
 ---------------------------------------------------------------
  

 Cite this work as:
 Gaussian 16, Revision C.01,
 M. J. Frisch, G. W. Trucks, H. B. Schlegel, G. E. Scuseria, 
 M. A. Robb, J. R. Cheeseman, G. Scalmani, V. Barone, 
 G. A. Petersson, H. Nakatsuji, X. Li, M. Caricato, A. V. Marenich, 
 J. Bloino, B. G. Janesko, R. Gomperts, B. Mennucci, H. P. Hratchian, 
 J. V. Ortiz, A. F. Izmaylov, J. L. Sonnenberg, D. Williams-Young, 
 F. Ding, F. Lipparini, F. Egidi, J. Goings, B. Peng, A. Petrone, 
 T. Henderson, D. Ranasinghe, V. G. Zakrzewski, J. Gao, N. Rega, 
 G. Zheng, W. Liang, M. Hada, M. Ehara, K. Toyota, R. Fukuda, 
 J. Hasegawa, M. Ishida, T. Nakajima, Y. Honda, O. Kitao, H. Nakai, 
 T. Vreven, K. Throssell, J. A. Montgomery, Jr., J. E. Peralta, 
 F. Ogliaro, M. J. Bearpark, J. J. Heyd, E. N. Brothers, K. N. Kudin, 
 V. N. Staroverov, T. A. Keith, R. Kobayashi, J. Normand, 
 K. Raghavachari, A. P. Rendell, J. C. Burant, S. S. Iyengar, 
 J. Tomasi, M. Cossi, J. M. Millam, M. Klene, C. Adamo, R. Cammi, 
 J. W. Ochterski, R. L. Martin, K. Morokuma, O. Farkas, 
 J. B. Foresman, and D. J. Fox, Gaussian, Inc., Wallingford CT, 2019.
 
 ******************************************
 Gaussian 16:  ES64L-G16RevC.01  3-Jul-2019
                 9-Feb-2023 
 ******************************************
 %oldchk=is_cc-pvdz.chk
 %chk=is_cc-pvdz_nlmo.chk
 %mem=8GB
 %nprocshared=8
 Will use up to    8 processors via shared memory.
 Copying data from "is_cc-pvdz.chk" to current chk file "is_cc-pvdz_nlmo.chk"
 IOpt=  2 FromEx=T IUOpen= 4 IOptOp= 5 NList=   0 IFRang= 0 IUIn= 4 IUOut= 2.
 ----------------------------------------------------------------------
 #p RHF/cc-pvdz nosymm int=nobasistransform guess(read,only) geom=allch
 eck pop=SaveNLMOs
 ----------------------------------------------------------------------
 1/29=7,38=1,172=1/1;
 2/12=2,15=1,40=1/2;
 3/5=16,11=1,14=-4,25=1,30=1,60=-1,89=1,116=1/1,2,3;
 4/5=1/1;
 6/7=3,28=1,40=1,73=2/1,7;
 99/5=5/99;
 Leave Link    1 at Thu Feb  9 09:17:20 2023, MaxMem=  1073741824 cpu:               0.5 elap:               0.1
 (Enter /public/home/zyli/senxu/soft/g16/l101.exe)
 Structure from the checkpoint file:  "is_cc-pvdz_nlmo.chk"
 -----
 title
 -----
 Charge =  0 Multiplicity = 1
 Z-Matrix found in chk file.
 C,0,-0.554554,-0.484397,0.000006
 C,0,-0.454419,-1.816934,0.001152
 H,0,-1.338031,-2.443475,0.001487
 H,0,0.515197,-2.299117,0.001943
 C,0,0.554555,0.484401,0.000004
 C,0,0.454425,1.816939,0.001151
 H,0,1.33804,2.443475,0.001488
 H,0,-0.515188,2.299127,0.001948
 Cl,0,2.171991,-0.234285,-0.00061
 Cl,0,-2.171994,0.234282,-0.00061
 C,0,6.4697015,-20.7271411,-6.38187287
 C,0,7.8053465,-20.7271401,-6.38121887
 C,0,6.0055175,-22.1441931,-6.38168487
 C,0,8.2695335,-22.1441921,-6.38136387
 O,0,9.3832075,-22.5850581,-6.38209987
 O,0,4.8918405,-22.5850581,-6.38172987
 O,0,7.1375245,-22.9573741,-6.38102387
 H,0,5.7767235,-19.8959401,-6.38208987
 H,0,8.4983235,-19.8959381,-6.38073387
 Recover connectivity data from disk.
 ITRead=  0  0  0  0  0  0  0  0  0  0  0  0  0  0  0  0  0  0  0
 MicOpt= -1 -1 -1 -1 -1 -1 -1 -1 -1 -1 -1 -1 -1 -1 -1 -1 -1 -1 -1
 NAtoms=     19 NQM=       19 NQMF=       0 NMMI=      0 NMMIF=      0
                NMic=       0 NMicF=      0.
                    Isotopes and Nuclear Properties:
 (Nuclear quadrupole moments (NQMom) in fm**2, nuclear magnetic moments (NMagM)
  in nuclear magnetons)

  Atom         1           2           3           4           5           6           7           8           9          10
 IAtWgt=          12          12           1           1          12          12           1           1          35          35
 AtmWgt=  12.0000000  12.0000000   1.0078250   1.0078250  12.0000000  12.0000000   1.0078250   1.0078250  34.9688527  34.9688527
 NucSpn=           0           0           1           1           0           0           1           1           3           3
 AtZEff=   3.6000000   3.6000000   1.0000000   1.0000000   3.6000000   3.6000000   1.0000000   1.0000000  14.2400000  14.2400000
 NQMom=    0.0000000   0.0000000   0.0000000   0.0000000   0.0000000   0.0000000   0.0000000   0.0000000  -8.1650000  -8.1650000
 NMagM=    0.0000000   0.0000000   2.7928460   2.7928460   0.0000000   0.0000000   2.7928460   2.7928460   0.8218740   0.8218740
 AtZNuc=   6.0000000   6.0000000   1.0000000   1.0000000   6.0000000   6.0000000   1.0000000   1.0000000  17.0000000  17.0000000

  Atom        11          12          13          14          15          16          17          18          19
 IAtWgt=          12          12          12          12          16          16          16           1           1
 AtmWgt=  12.0000000  12.0000000  12.0000000  12.0000000  15.9949146  15.9949146  15.9949146   1.0078250   1.0078250
 NucSpn=           0           0           0           0           0           0           0           1           1
 AtZEff=   3.6000000   3.6000000   3.6000000   3.6000000   5.6000000   5.6000000   5.6000000   1.0000000   1.0000000
 NQMom=    0.0000000   0.0000000   0.0000000   0.0000000   0.0000000   0.0000000   0.0000000   0.0000000   0.0000000
 NMagM=    0.0000000   0.0000000   0.0000000   0.0000000   0.0000000   0.0000000   0.0000000   2.7928460   2.7928460
 AtZNuc=   6.0000000   6.0000000   6.0000000   6.0000000   8.0000000   8.0000000   8.0000000   1.0000000   1.0000000
 Leave Link  101 at Thu Feb  9 09:17:20 2023, MaxMem=  1073741824 cpu:               1.2 elap:               0.2
 (Enter /public/home/zyli/senxu/soft/g16/l202.exe)
                          Input orientation:                          
 ---------------------------------------------------------------------
 Center     Atomic      Atomic             Coordinates (Angstroms)
 Number     Number       Type             X           Y           Z
 ---------------------------------------------------------------------
      1          6           0       -0.554554   -0.484397    0.000006
      2          6           0       -0.454419   -1.816934    0.001152
      3          1           0       -1.338031   -2.443475    0.001487
      4          1           0        0.515197   -2.299117    0.001943
      5          6           0        0.554555    0.484401    0.000004
      6          6           0        0.454425    1.816939    0.001151
      7          1           0        1.338040    2.443475    0.001488
      8          1           0       -0.515188    2.299127    0.001948
      9         17           0        2.171991   -0.234285   -0.000610
     10         17           0       -2.171994    0.234282   -0.000610
     11          6           0        6.469702  -20.727141   -6.381873
     12          6           0        7.805346  -20.727140   -6.381219
     13          6           0        6.005517  -22.144193   -6.381685
     14          6           0        8.269533  -22.144192   -6.381364
     15          8           0        9.383208  -22.585058   -6.382100
     16          8           0        4.891841  -22.585058   -6.381730
     17          8           0        7.137525  -22.957374   -6.381024
     18          1           0        5.776723  -19.895940   -6.382090
     19          1           0        8.498323  -19.895938   -6.380734
 ---------------------------------------------------------------------
                    Distance matrix (angstroms):
                    1          2          3          4          5
     1  C    0.000000
     2  C    1.336295   0.000000
     3  H    2.109935   1.083201   0.000000
     4  H    2.106556   1.082893   1.858842   0.000000
     5  C    1.472648   2.512802   3.486308   2.783797   0.000000
     6  C    2.512805   3.745802   4.622124   4.116505   1.336295
     7  H    3.486309   4.622120   5.571682   4.813445   2.109934
     8  H    2.783803   4.116510   4.813455   4.712276   2.106557
     9  Cl   2.737993   3.066400   4.147382   2.647358   1.769918
    10  Cl   1.769919   2.675361   2.804618   3.693117   2.737997
    11  C   22.357040  21.125397  20.880623  20.391206  22.926989
    12  C   22.811765  21.599868  21.415711  20.820256  23.307155
    13  C   23.513981  22.263622  21.972503  21.557397  24.134876
    14  C   24.243208  23.022625  22.829024  22.241928  24.744615
    15  O   25.058524  23.850362  23.693427  23.041637  25.512277
    16  O   23.639564  22.374956  22.028167  21.712340  24.325676
    17  O   24.595128  23.351402  23.095271  22.613294  25.170813
    18  H   21.392153  20.159945  19.898702  19.444478  21.985460
    19  H   22.348968  21.159642  21.025582  20.349865  22.785423
                    6          7          8          9         10
     6  C    0.000000
     7  H    1.083200   0.000000
     8  H    1.082892   1.858841   0.000000
     9  Cl   2.675361   2.804617   3.693117   0.000000
    10  Cl   3.066412   4.147394   2.647376   4.369183   0.000000
    11  C   24.190124  24.575571  24.894796  21.889449  23.553783
    12  C   24.556184  24.888600  25.301879  22.190177  24.075729
    13  C   25.410452  25.827963  26.091115  23.139968  24.665481
    14  C   25.999004  26.331346  26.746847  23.620713  25.505600
    15  O   26.756803  27.053694  27.531018  24.336847  26.362253
    16  O   25.610336  26.073021  26.252809  23.402421  24.725265
    17  O   26.441682  26.824869  27.151375  24.118561  25.792048
    18  H   23.249124  23.653783  23.936689  20.983281  22.563937
    19  H   24.018364  24.311557  24.791187  21.617333  23.659827
                   11         12         13         14         15
    11  C    0.000000
    12  C    1.335645   0.000000
    13  C    1.491142   2.290726   0.000000
    14  C    2.290727   1.491143   2.264016   0.000000
    15  O    3.455484   2.437520   3.406340   1.197762   0.000000
    16  O    2.437519   3.455485   1.197764   3.406343   4.491367
    17  O    2.328074   2.328074   1.393809   1.393811   2.276338
    18  H    1.082180   2.192306   2.259865   3.356894   4.498676
    19  H    2.192306   1.082180   3.356893   2.259865   2.830969
                   16         17         18         19
    16  O    0.000000
    17  O    2.276338   0.000000
    18  H    2.830967   3.350248   0.000000
    19  H    4.498676   3.350248   2.721600   0.000000
 Symmetry turned off by external request.
 Stoichiometry    C8H6Cl2O3
 Framework group  C1[X(C8H6Cl2O3)]
 Deg. of freedom    51
 Full point group                 C1      NOp   1
 Rotational constants (GHZ):           0.9530666           0.0160086           0.0157578
 Leave Link  202 at Thu Feb  9 09:17:20 2023, MaxMem=  1073741824 cpu:               0.0 elap:               0.0
 (Enter /public/home/zyli/senxu/soft/g16/l301.exe)
 Standard basis: CC-pVDZ (5D, 7F)
   220 basis functions,   597 primitive gaussians,   233 cartesian basis functions
    56 alpha electrons       56 beta electrons
       nuclear repulsion energy       663.5937371290 Hartrees.
 IExCor=    0 DFT=F Ex=HF Corr=None ExCW=0 ScaHFX=  1.000000
 ScaDFX=  1.000000  1.000000  1.000000  1.000000 ScalE2=  1.000000  1.000000
 IRadAn=      5 IRanWt=     -1 IRanGd=            0 ICorTp=0 IEmpDi=  4
 NAtoms=   19 NActive=   19 NUniq=   19 SFac= 1.00D+00 NAtFMM=   60 NAOKFM=F Big=F
 Integral buffers will be    131072 words long.
 Raffenetti 1 integral format.
 Two-electron integral symmetry is turned off.
 Leave Link  301 at Thu Feb  9 09:17:20 2023, MaxMem=  1073741824 cpu:               0.3 elap:               0.1
 (Enter /public/home/zyli/senxu/soft/g16/l302.exe)
 NPDir=0 NMtPBC=     1 NCelOv=     1 NCel=       1 NClECP=     1 NCelD=      1
         NCelK=      1 NCelE2=     1 NClLst=     1 CellRange=     0.0.
 One-electron integrals computed using PRISM.
 NBasis=   220 RedAO= T EigKep=  1.02D-03  NBF=   220
 NBsUse=   220 1.00D-06 EigRej= -1.00D+00 NBFU=   220
 Leave Link  302 at Thu Feb  9 09:17:20 2023, MaxMem=  1073741824 cpu:               1.4 elap:               0.2
 (Enter /public/home/zyli/senxu/soft/g16/l303.exe)
 DipDrv:  MaxL=1.
 Leave Link  303 at Thu Feb  9 09:17:20 2023, MaxMem=  1073741824 cpu:               0.4 elap:               0.1
 (Enter /public/home/zyli/senxu/soft/g16/l401.exe)
 Initial guess from the checkpoint file:  "is_cc-pvdz_nlmo.chk"
 B after Tr=     0.000000    0.000000    0.000000
         Rot=    1.000000    0.000000    0.000000    0.000000 Ang=   0.00 deg.
 Guess basis will be translated and rotated to current coordinates.
 JPrj=2 DoOrth=T DoCkMO=T.
 Leave Link  401 at Thu Feb  9 09:17:20 2023, MaxMem=  1073741824 cpu:               1.1 elap:               0.1
 (Enter /public/home/zyli/senxu/soft/g16/l601.exe)
 Copying SCF densities to generalized density rwf, IOpCl= 0 IROHF=0.

 **********************************************************************

            Population analysis using the SCF Density.

 **********************************************************************

 Alpha  occ. eigenvalues -- -104.84340-104.84334 -20.64805 -20.59413 -20.59412
 Alpha  occ. eigenvalues --  -11.42870 -11.42868 -11.33086 -11.33011 -11.31852
 Alpha  occ. eigenvalues --  -11.31685 -11.26689 -11.26687 -10.57017 -10.57010
 Alpha  occ. eigenvalues --   -8.03774  -8.03768  -8.03438  -8.03431  -8.03420
 Alpha  occ. eigenvalues --   -8.03413  -1.51745  -1.44197  -1.39650  -1.20027
 Alpha  occ. eigenvalues --   -1.15522  -1.14055  -1.02767  -1.02598  -0.95848
 Alpha  occ. eigenvalues --   -0.85948  -0.85833  -0.82835  -0.73270  -0.72394
 Alpha  occ. eigenvalues --   -0.69353  -0.68908  -0.67983  -0.66858  -0.65551
 Alpha  occ. eigenvalues --   -0.63868  -0.61448  -0.59374  -0.57443  -0.57396
 Alpha  occ. eigenvalues --   -0.55373  -0.51769  -0.50397  -0.50261  -0.49611
 Alpha  occ. eigenvalues --   -0.47780  -0.47261  -0.45240  -0.44464  -0.40780
 Alpha  occ. eigenvalues --   -0.34898
 Alpha virt. eigenvalues --    0.02518   0.08503   0.16584   0.17299   0.20153
 Alpha virt. eigenvalues --    0.20230   0.20763   0.21018   0.21930   0.22514
 Alpha virt. eigenvalues --    0.23814   0.25589   0.30052   0.31484   0.33761
 Alpha virt. eigenvalues --    0.36924   0.40033   0.40647   0.42571   0.44672
 Alpha virt. eigenvalues --    0.44839   0.53112   0.55894   0.59207   0.60954
 Alpha virt. eigenvalues --    0.61649   0.62733   0.64074   0.64846   0.66911
 Alpha virt. eigenvalues --    0.67581   0.68093   0.68292   0.69002   0.69768
 Alpha virt. eigenvalues --    0.69792   0.70329   0.71811   0.72183   0.73803
 Alpha virt. eigenvalues --    0.75317   0.77583   0.78410   0.78569   0.80226
 Alpha virt. eigenvalues --    0.80327   0.80351   0.81704   0.82875   0.83517
 Alpha virt. eigenvalues --    0.84957   0.86580   0.87005   0.90504   0.91917
 Alpha virt. eigenvalues --    0.93620   0.93694   0.94539   0.95998   0.96189
 Alpha virt. eigenvalues --    0.98299   1.00806   1.03390   1.04952   1.05268
 Alpha virt. eigenvalues --    1.05433   1.08699   1.09997   1.13453   1.13809
 Alpha virt. eigenvalues --    1.15168   1.15366   1.15543   1.16529   1.18209
 Alpha virt. eigenvalues --    1.19342   1.19533   1.23383   1.24416   1.25797
 Alpha virt. eigenvalues --    1.25827   1.30336   1.32775   1.34391   1.34644
 Alpha virt. eigenvalues --    1.35381   1.36126   1.37539   1.40299   1.42179
 Alpha virt. eigenvalues --    1.43944   1.44462   1.50870   1.51102   1.56909
 Alpha virt. eigenvalues --    1.57028   1.58124   1.60647   1.65741   1.66924
 Alpha virt. eigenvalues --    1.68443   1.70546   1.71615   1.71907   1.72826
 Alpha virt. eigenvalues --    1.74927   1.74959   1.78215   1.82016   1.82905
 Alpha virt. eigenvalues --    1.85670   1.87285   1.87845   1.90278   1.93909
 Alpha virt. eigenvalues --    1.98802   1.99037   2.01319   2.05030   2.05517
 Alpha virt. eigenvalues --    2.07597   2.10337   2.12054   2.13890   2.14355
 Alpha virt. eigenvalues --    2.16598   2.18263   2.23900   2.26678   2.29654
 Alpha virt. eigenvalues --    2.31843   2.34864   2.38719   2.38942   2.42532
 Alpha virt. eigenvalues --    2.44065   2.49698   2.54017   2.55365   2.60303
 Alpha virt. eigenvalues --    2.66553   2.71957   2.77981   2.79850   2.92949
 Alpha virt. eigenvalues --    2.95390   2.95447   2.96164   2.99415   3.03815
 Alpha virt. eigenvalues --    3.09815   3.10815   3.18613   3.26839   3.35381
 Alpha virt. eigenvalues --    3.42969   3.47463   3.50220   3.56733   3.59444
 Alpha virt. eigenvalues --    3.79355   3.87973   3.89261   3.90965
     Molecular Orbital Coefficients:
                           1         2         3         4         5
                           O         O         O         O         O
     Eigenvalues --  -104.84340-104.84334 -20.64805 -20.59413 -20.59412
   1 1   C  1S         -0.00001   0.00000  -0.00000  -0.00000  -0.00000
   2        2S         -0.00001   0.00000  -0.00000  -0.00000  -0.00000
   3        3S         -0.00003  -0.00028   0.00000   0.00000   0.00000
   4        4PX        -0.00000   0.00002   0.00000  -0.00000  -0.00000
   5        4PY        -0.00000  -0.00001   0.00000   0.00000   0.00000
   6        4PZ         0.00000   0.00000   0.00000  -0.00000  -0.00000
   7        5PX         0.00002  -0.00062   0.00000   0.00000   0.00000
   8        5PY         0.00051   0.00030   0.00000  -0.00000  -0.00000
   9        5PZ        -0.00000  -0.00000  -0.00000   0.00000   0.00000
  10        6D 0       -0.00001   0.00001  -0.00000  -0.00000  -0.00000
  11        6D+1        0.00000  -0.00000   0.00000  -0.00000  -0.00000
  12        6D-1        0.00000   0.00000  -0.00000   0.00000   0.00000
  13        6D+2       -0.00001  -0.00001   0.00000   0.00000   0.00000
  14        6D-2        0.00001   0.00001  -0.00000  -0.00000  -0.00000
  15 2   C  1S         -0.00001  -0.00001  -0.00000   0.00000  -0.00000
  16        2S         -0.00002  -0.00002  -0.00000  -0.00000  -0.00000
  17        3S          0.00036   0.00034  -0.00000  -0.00000  -0.00000
  18        4PX        -0.00000  -0.00000   0.00000  -0.00000   0.00000
  19        4PY        -0.00000   0.00000   0.00000   0.00000   0.00000
  20        4PZ         0.00000  -0.00000  -0.00000   0.00000   0.00000
  21        5PX        -0.00004   0.00016  -0.00000  -0.00000   0.00000
  22        5PY         0.00022   0.00020  -0.00000  -0.00000  -0.00000
  23        5PZ        -0.00000  -0.00000   0.00000  -0.00000  -0.00000
  24        6D 0       -0.00001  -0.00002   0.00000   0.00000   0.00000
  25        6D+1        0.00000  -0.00000  -0.00000   0.00000   0.00000
  26        6D-1       -0.00000  -0.00000   0.00000  -0.00000  -0.00000
  27        6D+2       -0.00001  -0.00000  -0.00000  -0.00000  -0.00000
  28        6D-2       -0.00000   0.00004  -0.00000  -0.00000  -0.00000
  29 3   H  1S         -0.00000  -0.00002   0.00000   0.00000   0.00000
  30        2S          0.00002   0.00009  -0.00000  -0.00000   0.00000
  31        3PX         0.00000  -0.00001   0.00000   0.00000   0.00000
  32        3PY        -0.00000  -0.00001   0.00000   0.00000   0.00000
  33        3PZ         0.00000   0.00000  -0.00000   0.00000   0.00000
  34 4   H  1S         -0.00002  -0.00002   0.00000   0.00000   0.00000
  35        2S          0.00010  -0.00003   0.00000   0.00000   0.00000
  36        3PX        -0.00000  -0.00001  -0.00000  -0.00000  -0.00000
  37        3PY         0.00000  -0.00001   0.00000   0.00000   0.00000
  38        3PZ        -0.00000   0.00000  -0.00000   0.00000   0.00000
  39 5   C  1S          0.00000  -0.00001  -0.00000  -0.00000  -0.00000
  40        2S          0.00000  -0.00001  -0.00000  -0.00000  -0.00000
  41        3S         -0.00028  -0.00003  -0.00000   0.00000   0.00000
  42        4PX        -0.00002   0.00000  -0.00000   0.00000   0.00000
  43        4PY         0.00001   0.00000  -0.00000  -0.00000  -0.00000
  44        4PZ         0.00000   0.00000  -0.00000   0.00000  -0.00000
  45        5PX         0.00062  -0.00002   0.00000   0.00000  -0.00000
  46        5PY        -0.00030  -0.00051   0.00000   0.00000   0.00000
  47        5PZ        -0.00000  -0.00000   0.00000  -0.00000  -0.00000
  48        6D 0        0.00001  -0.00001   0.00000  -0.00000  -0.00000
  49        6D+1        0.00000  -0.00000   0.00000   0.00000  -0.00000
  50        6D-1       -0.00000  -0.00000  -0.00000   0.00000   0.00000
  51        6D+2       -0.00001  -0.00001   0.00000   0.00000   0.00000
  52        6D-2        0.00001   0.00001  -0.00000   0.00000   0.00000
  53 6   C  1S         -0.00001  -0.00001   0.00000   0.00000  -0.00000
  54        2S         -0.00002  -0.00002  -0.00000   0.00000  -0.00000
  55        3S          0.00034   0.00036  -0.00000  -0.00000  -0.00000
  56        4PX         0.00000   0.00000   0.00000  -0.00000   0.00000
  57        4PY        -0.00000   0.00000  -0.00000  -0.00000  -0.00000
  58        4PZ        -0.00000   0.00000   0.00000  -0.00000  -0.00000
  59        5PX        -0.00016   0.00004  -0.00000  -0.00000   0.00000
  60        5PY        -0.00020  -0.00022  -0.00000   0.00000   0.00000
  61        5PZ        -0.00000  -0.00000  -0.00000   0.00000   0.00000
  62        6D 0       -0.00002  -0.00001   0.00000   0.00000   0.00000
  63        6D+1        0.00000  -0.00000  -0.00000   0.00000   0.00000
  64        6D-1        0.00000   0.00000   0.00000  -0.00000  -0.00000
  65        6D+2       -0.00000  -0.00001  -0.00000  -0.00000  -0.00000
  66        6D-2        0.00004  -0.00000  -0.00000   0.00000   0.00000
  67 7   H  1S         -0.00002  -0.00000   0.00000   0.00000  -0.00000
  68        2S          0.00009   0.00002   0.00000   0.00000  -0.00000
  69        3PX         0.00001  -0.00000  -0.00000  -0.00000   0.00000
  70        3PY         0.00001   0.00000  -0.00000  -0.00000   0.00000
  71        3PZ         0.00000   0.00000   0.00000  -0.00000  -0.00000
  72 8   H  1S         -0.00002  -0.00002   0.00000   0.00000   0.00000
  73        2S         -0.00003   0.00010   0.00000  -0.00000   0.00000
  74        3PX         0.00001   0.00000   0.00000   0.00000   0.00000
  75        3PY         0.00001  -0.00000  -0.00000  -0.00000  -0.00000
  76        3PZ         0.00000  -0.00000   0.00000  -0.00000  -0.00000
  77 9   Cl 1S          1.00004  -0.00084  -0.00000   0.00000   0.00000
  78        2S          0.00017   0.00001  -0.00000   0.00000  -0.00000
  79        3S          0.00019   0.00001   0.00000  -0.00000  -0.00000
  80        4S         -0.00096  -0.00007  -0.00000   0.00000   0.00000
  81        5PX        -0.00005   0.00000   0.00000   0.00000   0.00000
  82        5PY         0.00002   0.00000   0.00000   0.00000  -0.00000
  83        5PZ         0.00000   0.00000  -0.00000   0.00000  -0.00000
  84        6PX        -0.00000   0.00001   0.00000  -0.00000  -0.00000
  85        6PY        -0.00001   0.00000  -0.00000  -0.00000  -0.00000
  86        6PZ         0.00000   0.00000   0.00000  -0.00000  -0.00000
  87        7PX         0.00027   0.00003   0.00000  -0.00000  -0.00000
  88        7PY        -0.00010   0.00001  -0.00000  -0.00000  -0.00000
  89        7PZ        -0.00000  -0.00000  -0.00000   0.00000   0.00000
  90        8D 0        0.00002  -0.00000   0.00000  -0.00000   0.00000
  91        8D+1        0.00000   0.00000   0.00000  -0.00000   0.00000
  92        8D-1       -0.00000   0.00000  -0.00000  -0.00000   0.00000
  93        8D+2       -0.00002  -0.00001   0.00000   0.00000  -0.00000
  94        8D-2        0.00002  -0.00001   0.00000   0.00000   0.00000
  95 10  Cl 1S          0.00084   1.00004   0.00000  -0.00000  -0.00000
  96        2S          0.00001   0.00017   0.00000  -0.00000   0.00000
  97        3S          0.00001   0.00019  -0.00000  -0.00000  -0.00000
  98        4S         -0.00008  -0.00096   0.00000   0.00000   0.00000
  99        5PX        -0.00000   0.00005  -0.00000  -0.00000   0.00000
 100        5PY        -0.00000  -0.00002  -0.00000   0.00000   0.00000
 101        5PZ         0.00000   0.00000  -0.00000  -0.00000   0.00000
 102        6PX        -0.00001   0.00000  -0.00000  -0.00000  -0.00000
 103        6PY        -0.00000   0.00001   0.00000   0.00000   0.00000
 104        6PZ         0.00000   0.00000  -0.00000   0.00000   0.00000
 105        7PX        -0.00003  -0.00027  -0.00000   0.00000   0.00000
 106        7PY        -0.00001   0.00010  -0.00000   0.00000   0.00000
 107        7PZ        -0.00000  -0.00000   0.00000  -0.00000  -0.00000
 108        8D 0       -0.00000   0.00002   0.00000   0.00000   0.00000
 109        8D+1       -0.00000  -0.00000   0.00000  -0.00000  -0.00000
 110        8D-1       -0.00000   0.00000  -0.00000   0.00000   0.00000
 111        8D+2       -0.00001  -0.00002  -0.00000  -0.00000  -0.00000
 112        8D-2       -0.00001   0.00002   0.00000   0.00000   0.00000
 113 11  C  1S          0.00000   0.00000  -0.00002  -0.00003  -0.00005
 114        2S          0.00000  -0.00000  -0.00006  -0.00003  -0.00010
 115        3S         -0.00000   0.00000  -0.00017   0.00248  -0.00090
 116        4PX         0.00000   0.00000   0.00005  -0.00003  -0.00002
 117        4PY         0.00000   0.00000   0.00015   0.00001   0.00008
 118        4PZ         0.00000   0.00000  -0.00000  -0.00000  -0.00000
 119        5PX         0.00000   0.00000  -0.00062   0.00173  -0.00015
 120        5PY         0.00000   0.00000   0.00057  -0.00052  -0.00041
 121        5PZ         0.00000  -0.00000  -0.00000   0.00000  -0.00000
 122        6D 0        0.00000   0.00000  -0.00003  -0.00011  -0.00005
 123        6D+1       -0.00000  -0.00000   0.00000   0.00000  -0.00000
 124        6D-1       -0.00000  -0.00000  -0.00000  -0.00000   0.00000
 125        6D+2        0.00000   0.00000   0.00009  -0.00016  -0.00002
 126        6D-2       -0.00000   0.00000  -0.00003  -0.00045   0.00003
 127 12  C  1S          0.00000   0.00000  -0.00002  -0.00003  -0.00005
 128        2S         -0.00000   0.00000  -0.00006  -0.00007  -0.00008
 129        3S          0.00000  -0.00000  -0.00017  -0.00209   0.00160
 130        4PX         0.00000   0.00000  -0.00005  -0.00000   0.00004
 131        4PY         0.00000  -0.00000   0.00015   0.00006   0.00005
 132        4PZ        -0.00000  -0.00000  -0.00000  -0.00000   0.00000
 133        5PX         0.00000   0.00000   0.00062   0.00105  -0.00138
 134        5PY        -0.00000  -0.00000   0.00057  -0.00007  -0.00066
 135        5PZ        -0.00000   0.00000  -0.00000   0.00000   0.00000
 136        6D 0       -0.00000  -0.00000  -0.00003   0.00001  -0.00012
 137        6D+1       -0.00000  -0.00000  -0.00000  -0.00000   0.00000
 138        6D-1        0.00000   0.00000   0.00000  -0.00000  -0.00000
 139        6D+2       -0.00000  -0.00000   0.00009   0.00007  -0.00015
 140        6D-2        0.00000   0.00000   0.00003  -0.00026   0.00036
 141 13  C  1S          0.00000  -0.00000   0.00012   0.00037  -0.00004
 142        2S         -0.00000   0.00000   0.00024   0.00053  -0.00012
 143        3S          0.00000  -0.00000   0.00194   0.00084   0.00085
 144        4PX        -0.00000   0.00000   0.00028   0.00016  -0.00004
 145        4PY         0.00000   0.00000  -0.00020   0.00004   0.00003
 146        4PZ         0.00000   0.00000   0.00000   0.00000  -0.00000
 147        5PX         0.00000   0.00000   0.00161  -0.00366  -0.00028
 148        5PY         0.00000   0.00000  -0.00041  -0.00108  -0.00037
 149        5PZ         0.00000   0.00000   0.00000  -0.00000   0.00000
 150        6D 0       -0.00000  -0.00000  -0.00008   0.00033   0.00003
 151        6D+1       -0.00000   0.00000   0.00000  -0.00000  -0.00000
 152        6D-1       -0.00000  -0.00000   0.00000  -0.00000   0.00000
 153        6D+2       -0.00000  -0.00000   0.00001  -0.00053  -0.00006
 154        6D-2       -0.00000   0.00000   0.00023  -0.00050  -0.00008
 155 14  C  1S          0.00000  -0.00000   0.00012  -0.00024   0.00029
 156        2S         -0.00000  -0.00000   0.00024  -0.00038   0.00038
 157        3S         -0.00000   0.00000   0.00194   0.00027   0.00116
 158        4PX         0.00000  -0.00000  -0.00028   0.00012  -0.00011
 159        4PY         0.00000  -0.00000  -0.00020   0.00000   0.00005
 160        4PZ        -0.00000  -0.00000   0.00000  -0.00000   0.00000
 161        5PX         0.00000  -0.00000  -0.00161  -0.00172   0.00325
 162        5PY        -0.00000  -0.00000  -0.00041   0.00027  -0.00111
 163        5PZ        -0.00000  -0.00000   0.00000   0.00000  -0.00000
 164        6D 0        0.00000  -0.00000  -0.00008  -0.00015   0.00029
 165        6D+1       -0.00000  -0.00000  -0.00000  -0.00000   0.00000
 166        6D-1        0.00000   0.00000   0.00000   0.00000  -0.00000
 167        6D+2       -0.00000   0.00000   0.00001   0.00023  -0.00048
 168        6D-2       -0.00000   0.00000  -0.00023  -0.00020   0.00047
 169 15  O  1S         -0.00000   0.00000  -0.00035  -0.27967   0.96156
 170        2S          0.00000   0.00000  -0.00013  -0.00065   0.00195
 171        3S          0.00000  -0.00000   0.00024   0.00209  -0.00639
 172        4PX        -0.00000  -0.00000   0.00005   0.00050  -0.00166
 173        4PY         0.00000   0.00000  -0.00002  -0.00021   0.00065
 174        4PZ         0.00000  -0.00000  -0.00000  -0.00000   0.00000
 175        5PX        -0.00000   0.00000   0.00026  -0.00036   0.00150
 176        5PY         0.00000  -0.00000   0.00028   0.00023  -0.00061
 177        5PZ         0.00000   0.00000   0.00000   0.00000  -0.00000
 178        6D 0       -0.00000   0.00000   0.00001   0.00008  -0.00024
 179        6D+1       -0.00000  -0.00000   0.00000   0.00000  -0.00000
 180        6D-1       -0.00000   0.00000   0.00000  -0.00000   0.00000
 181        6D+2        0.00000   0.00000  -0.00010  -0.00004   0.00007
 182        6D-2       -0.00000  -0.00000  -0.00003   0.00003  -0.00006
 183 16  O  1S         -0.00000   0.00000  -0.00035   0.96158   0.27959
 184        2S          0.00000  -0.00000  -0.00013   0.00199   0.00049
 185        3S         -0.00000   0.00000   0.00024  -0.00651  -0.00166
 186        4PX        -0.00000  -0.00000  -0.00005   0.00167   0.00047
 187        4PY        -0.00000  -0.00000  -0.00002   0.00066   0.00017
 188        4PZ         0.00000   0.00000   0.00000   0.00000   0.00000
 189        5PX         0.00000   0.00000  -0.00026  -0.00146  -0.00050
 190        5PY        -0.00000   0.00000   0.00028  -0.00064  -0.00013
 191        5PZ        -0.00000  -0.00000  -0.00000   0.00000  -0.00000
 192        6D 0        0.00000  -0.00000   0.00001  -0.00025  -0.00006
 193        6D+1       -0.00000  -0.00000  -0.00000   0.00000   0.00000
 194        6D-1        0.00000   0.00000  -0.00000  -0.00000  -0.00000
 195        6D+2       -0.00000  -0.00000  -0.00010   0.00008   0.00001
 196        6D-2       -0.00000   0.00000   0.00003   0.00007   0.00001
 197 17  O  1S          0.00000  -0.00000   1.00143   0.00015   0.00027
 198        2S         -0.00000   0.00000   0.00215  -0.00010  -0.00018
 199        3S          0.00000  -0.00000  -0.00705   0.00030   0.00054
 200        4PX         0.00000  -0.00000  -0.00000   0.00006  -0.00003
 201        4PY         0.00000  -0.00000   0.00155  -0.00003  -0.00005
 202        4PZ         0.00000  -0.00000  -0.00000   0.00000   0.00000
 203        5PX         0.00000  -0.00000   0.00000   0.00010  -0.00005
 204        5PY         0.00000  -0.00000  -0.00190   0.00028   0.00050
 205        5PZ        -0.00000  -0.00000   0.00000  -0.00000   0.00000
 206        6D 0       -0.00000   0.00000   0.00011  -0.00000  -0.00000
 207        6D+1        0.00000   0.00000  -0.00000  -0.00000   0.00000
 208        6D-1       -0.00000  -0.00000   0.00000  -0.00000   0.00000
 209        6D+2       -0.00000  -0.00000  -0.00005  -0.00009  -0.00017
 210        6D-2        0.00000   0.00000   0.00000  -0.00001   0.00001
 211 18  H  1S         -0.00000   0.00000  -0.00016  -0.00018   0.00009
 212        2S         -0.00000   0.00000  -0.00029   0.00031   0.00018
 213        3PX        -0.00000   0.00000   0.00001  -0.00019   0.00000
 214        3PY         0.00000  -0.00000   0.00002   0.00011   0.00000
 215        3PZ         0.00000  -0.00000   0.00000  -0.00000  -0.00000
 216 19  H  1S         -0.00000  -0.00000  -0.00016   0.00017  -0.00010
 217        2S          0.00000   0.00000  -0.00029  -0.00001   0.00036
 218        3PX         0.00000   0.00000  -0.00001  -0.00010   0.00016
 219        3PY         0.00000   0.00000   0.00002  -0.00006   0.00009
 220        3PZ        -0.00000  -0.00000   0.00000  -0.00000   0.00000
                           6         7         8         9        10
                           O         O         O         O         O
     Eigenvalues --   -11.42870 -11.42868 -11.33086 -11.33011 -11.31852
   1 1   C  1S         -0.00000  -0.00000   0.72661  -0.68971  -0.00000
   2        2S          0.00000  -0.00000   0.00252  -0.00279   0.00000
   3        3S         -0.00000  -0.00000  -0.00652   0.00904  -0.00000
   4        4PX        -0.00000  -0.00000  -0.00039   0.00017   0.00000
   5        4PY        -0.00000  -0.00000   0.00040  -0.00044  -0.00000
   6        4PZ         0.00000   0.00000  -0.00000   0.00000  -0.00000
   7        5PX        -0.00000  -0.00000   0.00004   0.00186  -0.00000
   8        5PY         0.00000  -0.00000   0.00147   0.00175   0.00000
   9        5PZ         0.00000  -0.00000  -0.00000   0.00000   0.00000
  10        6D 0        0.00000   0.00000   0.00001   0.00029  -0.00000
  11        6D+1        0.00000  -0.00000  -0.00000   0.00000   0.00000
  12        6D-1       -0.00000   0.00000  -0.00000   0.00000  -0.00000
  13        6D+2        0.00000  -0.00000  -0.00046   0.00012  -0.00000
  14        6D-2       -0.00000   0.00000   0.00013  -0.00035   0.00000
  15 2   C  1S         -0.00000  -0.00000   0.00879  -0.00881  -0.00000
  16        2S         -0.00000  -0.00000  -0.00047   0.00009  -0.00000
  17        3S          0.00000   0.00000   0.00312  -0.00074   0.00000
  18        4PX        -0.00000  -0.00000  -0.00003  -0.00000   0.00000
  19        4PY         0.00000  -0.00000  -0.00001  -0.00013   0.00000
  20        4PZ        -0.00000  -0.00000  -0.00000  -0.00000   0.00000
  21        5PX         0.00000   0.00000  -0.00005  -0.00031   0.00000
  22        5PY         0.00000   0.00000   0.00188  -0.00069   0.00000
  23        5PZ        -0.00000   0.00000  -0.00000   0.00000  -0.00000
  24        6D 0       -0.00000  -0.00000   0.00000  -0.00022   0.00000
  25        6D+1        0.00000  -0.00000  -0.00000   0.00000   0.00000
  26        6D-1        0.00000   0.00000   0.00000  -0.00000  -0.00000
  27        6D+2       -0.00000   0.00000  -0.00019   0.00025  -0.00000
  28        6D-2       -0.00000   0.00000   0.00023  -0.00020  -0.00000
  29 3   H  1S         -0.00000  -0.00000  -0.00012  -0.00003   0.00000
  30        2S          0.00000  -0.00000   0.00036  -0.00023   0.00000
  31        3PX        -0.00000  -0.00000  -0.00002  -0.00000   0.00000
  32        3PY        -0.00000  -0.00000   0.00005  -0.00010   0.00000
  33        3PZ         0.00000  -0.00000  -0.00000   0.00000   0.00000
  34 4   H  1S         -0.00000   0.00000   0.00001  -0.00020   0.00000
  35        2S         -0.00000  -0.00000   0.00031  -0.00006  -0.00000
  36        3PX         0.00000   0.00000  -0.00015   0.00015   0.00000
  37        3PY        -0.00000  -0.00000   0.00002  -0.00011  -0.00000
  38        3PZ         0.00000  -0.00000  -0.00000   0.00000   0.00000
  39 5   C  1S          0.00000   0.00000   0.68937   0.72694  -0.00000
  40        2S         -0.00000  -0.00000   0.00237   0.00292   0.00000
  41        3S          0.00000   0.00000  -0.00603  -0.00937   0.00000
  42        4PX        -0.00000   0.00000   0.00039   0.00019   0.00000
  43        4PY        -0.00000  -0.00000  -0.00038  -0.00046   0.00000
  44        4PZ        -0.00000  -0.00000  -0.00000  -0.00000   0.00000
  45        5PX        -0.00000  -0.00000  -0.00014   0.00186   0.00000
  46        5PY        -0.00000   0.00000  -0.00156   0.00167  -0.00000
  47        5PZ        -0.00000   0.00000  -0.00000  -0.00000  -0.00000
  48        6D 0       -0.00000  -0.00000   0.00003  -0.00029   0.00000
  49        6D+1        0.00000  -0.00000   0.00000   0.00000   0.00000
  50        6D-1       -0.00000   0.00000   0.00000   0.00000  -0.00000
  51        6D+2       -0.00000   0.00000  -0.00045  -0.00015  -0.00000
  52        6D-2        0.00000   0.00000   0.00011   0.00036  -0.00000
  53 6   C  1S          0.00000   0.00000   0.00832   0.00926   0.00000
  54        2S         -0.00000   0.00000  -0.00047  -0.00011   0.00000
  55        3S         -0.00000  -0.00000   0.00308   0.00090  -0.00000
  56        4PX         0.00000  -0.00000   0.00003  -0.00000   0.00000
  57        4PY         0.00000   0.00000   0.00002  -0.00013   0.00000
  58        4PZ         0.00000   0.00000  -0.00000  -0.00000  -0.00000
  59        5PX         0.00000   0.00000   0.00006  -0.00031   0.00000
  60        5PY         0.00000   0.00000  -0.00185  -0.00079  -0.00000
  61        5PZ         0.00000  -0.00000  -0.00000  -0.00000   0.00000
  62        6D 0        0.00000  -0.00000  -0.00001   0.00022   0.00000
  63        6D+1        0.00000  -0.00000   0.00000   0.00000   0.00000
  64        6D-1        0.00000   0.00000  -0.00000  -0.00000  -0.00000
  65        6D+2       -0.00000  -0.00000  -0.00017  -0.00026   0.00000
  66        6D-2        0.00000   0.00000   0.00021   0.00021   0.00000
  67 7   H  1S         -0.00000  -0.00000  -0.00012   0.00003  -0.00000
  68        2S         -0.00000   0.00000   0.00035   0.00025   0.00000
  69        3PX         0.00000   0.00000   0.00002  -0.00000  -0.00000
  70        3PY        -0.00000  -0.00000  -0.00004  -0.00010   0.00000
  71        3PZ        -0.00000   0.00000  -0.00000  -0.00000  -0.00000
  72 8   H  1S          0.00000  -0.00000   0.00000   0.00020   0.00000
  73        2S          0.00000   0.00000   0.00031   0.00008   0.00000
  74        3PX         0.00000  -0.00000   0.00014   0.00016   0.00000
  75        3PY        -0.00000  -0.00000  -0.00001  -0.00011  -0.00000
  76        3PZ        -0.00000   0.00000  -0.00000  -0.00000  -0.00000
  77 9   Cl 1S          0.00000  -0.00000  -0.00000  -0.00000  -0.00000
  78        2S          0.00000   0.00000   0.00010   0.00013   0.00000
  79        3S          0.00000   0.00000   0.00001   0.00004  -0.00000
  80        4S         -0.00000  -0.00000   0.00055   0.00067  -0.00000
  81        5PX        -0.00000  -0.00000  -0.00004  -0.00006   0.00000
  82        5PY         0.00000  -0.00000   0.00002   0.00003   0.00000
  83        5PZ         0.00000  -0.00000   0.00000  -0.00000  -0.00000
  84        6PX         0.00000  -0.00000  -0.00012  -0.00018   0.00000
  85        6PY        -0.00000   0.00000   0.00007   0.00008   0.00000
  86        6PZ         0.00000   0.00000   0.00000  -0.00000   0.00000
  87        7PX         0.00000   0.00000  -0.00021  -0.00035   0.00000
  88        7PY         0.00000  -0.00000   0.00023  -0.00013   0.00000
  89        7PZ        -0.00000  -0.00000  -0.00000   0.00000   0.00000
  90        8D 0        0.00000  -0.00000   0.00010   0.00014  -0.00000
  91        8D+1        0.00000   0.00000   0.00000   0.00000  -0.00000
  92        8D-1        0.00000  -0.00000  -0.00000  -0.00000   0.00000
  93        8D+2       -0.00000  -0.00000  -0.00009  -0.00001  -0.00000
  94        8D-2        0.00000   0.00000   0.00003   0.00013  -0.00000
  95 10  Cl 1S          0.00000   0.00000  -0.00000   0.00000  -0.00000
  96        2S         -0.00000  -0.00000   0.00010  -0.00012   0.00000
  97        3S         -0.00000  -0.00000   0.00002  -0.00004  -0.00000
  98        4S         -0.00000   0.00000   0.00058  -0.00064   0.00000
  99        5PX        -0.00000   0.00000   0.00005  -0.00006  -0.00000
 100        5PY        -0.00000   0.00000  -0.00002   0.00003  -0.00000
 101        5PZ         0.00000  -0.00000   0.00000   0.00000   0.00000
 102        6PX         0.00000   0.00000   0.00013  -0.00017  -0.00000
 103        6PY        -0.00000   0.00000  -0.00007   0.00007   0.00000
 104        6PZ        -0.00000   0.00000   0.00000   0.00000  -0.00000
 105        7PX         0.00000   0.00000   0.00022  -0.00034   0.00000
 106        7PY         0.00000   0.00000  -0.00022  -0.00014  -0.00000
 107        7PZ         0.00000   0.00000  -0.00000  -0.00000  -0.00000
 108        8D 0       -0.00000  -0.00000   0.00010  -0.00014  -0.00000
 109        8D+1        0.00000   0.00000  -0.00000   0.00000  -0.00000
 110        8D-1        0.00000  -0.00000   0.00000  -0.00000   0.00000
 111        8D+2        0.00000   0.00000  -0.00009   0.00000   0.00000
 112        8D-2       -0.00000  -0.00000   0.00004  -0.00013  -0.00000
 113 11  C  1S          0.00232   0.00181   0.00000   0.00000   0.70809
 114        2S         -0.00018  -0.00006  -0.00000  -0.00000   0.00282
 115        3S          0.00384   0.00011   0.00000  -0.00000  -0.00482
 116        4PX         0.00003   0.00002   0.00000   0.00000  -0.00006
 117        4PY        -0.00002  -0.00002   0.00000   0.00000  -0.00014
 118        4PZ        -0.00000  -0.00000  -0.00000  -0.00000   0.00000
 119        5PX        -0.00012  -0.00015   0.00000  -0.00000   0.00035
 120        5PY        -0.00217   0.00004  -0.00000  -0.00000   0.00082
 121        5PZ         0.00000  -0.00000  -0.00000  -0.00000  -0.00000
 122        6D 0        0.00021   0.00016  -0.00000   0.00000  -0.00021
 123        6D+1       -0.00000  -0.00000   0.00000   0.00000   0.00000
 124        6D-1        0.00000   0.00000  -0.00000   0.00000  -0.00000
 125        6D+2        0.00021   0.00018   0.00000   0.00000   0.00011
 126        6D-2        0.00021   0.00003   0.00000   0.00000  -0.00017
 127 12  C  1S         -0.00175   0.00236   0.00000   0.00000   0.70849
 128        2S          0.00015  -0.00011   0.00000   0.00000   0.00283
 129        3S         -0.00367   0.00112  -0.00000  -0.00000  -0.00483
 130        4PX         0.00003  -0.00003   0.00000   0.00000   0.00006
 131        4PY         0.00001  -0.00002  -0.00000   0.00000  -0.00014
 132        4PZ         0.00000  -0.00000   0.00000  -0.00000  -0.00000
 133        5PX        -0.00008   0.00018   0.00000  -0.00000  -0.00035
 134        5PY         0.00210  -0.00054   0.00000   0.00000   0.00083
 135        5PZ         0.00000   0.00000   0.00000   0.00000   0.00000
 136        6D 0       -0.00016   0.00021   0.00000   0.00000  -0.00021
 137        6D+1       -0.00000  -0.00000   0.00000   0.00000   0.00000
 138        6D-1       -0.00000  -0.00000  -0.00000  -0.00000   0.00000
 139        6D+2       -0.00016   0.00023  -0.00000   0.00000   0.00011
 140        6D-2        0.00019  -0.00009  -0.00000   0.00000   0.00017
 141 13  C  1S          0.79711   0.60674  -0.00000  -0.00000  -0.00233
 142        2S          0.00296   0.00174  -0.00000   0.00000  -0.00014
 143        3S         -0.00565  -0.00077  -0.00000  -0.00000   0.00203
 144        4PX         0.00038   0.00035   0.00000  -0.00000   0.00005
 145        4PY        -0.00049  -0.00043  -0.00000   0.00000  -0.00004
 146        4PZ         0.00000   0.00000  -0.00000   0.00000  -0.00000
 147        5PX        -0.00260   0.00021   0.00000   0.00000   0.00039
 148        5PY        -0.00305  -0.00042  -0.00000  -0.00000   0.00083
 149        5PZ         0.00000   0.00000   0.00000   0.00000   0.00000
 150        6D 0       -0.00054  -0.00058  -0.00000  -0.00000   0.00016
 151        6D+1        0.00000   0.00000  -0.00000   0.00000   0.00000
 152        6D-1       -0.00000  -0.00000   0.00000   0.00000   0.00000
 153        6D+2        0.00031   0.00049   0.00000   0.00000   0.00016
 154        6D-2        0.00025   0.00016  -0.00000   0.00000  -0.00015
 155 14  C  1S         -0.60712   0.79682  -0.00000  -0.00000  -0.00233
 156        2S         -0.00239   0.00247  -0.00000   0.00000  -0.00014
 157        3S          0.00525  -0.00224   0.00000   0.00000   0.00203
 158        4PX         0.00027  -0.00044   0.00000   0.00000  -0.00005
 159        4PY         0.00036  -0.00054   0.00000  -0.00000  -0.00004
 160        4PZ         0.00000  -0.00000  -0.00000  -0.00000   0.00000
 161        5PX        -0.00256   0.00049  -0.00000   0.00000  -0.00039
 162        5PY         0.00283  -0.00122   0.00000   0.00000   0.00083
 163        5PZ         0.00000  -0.00000  -0.00000  -0.00000  -0.00000
 164        6D 0        0.00037  -0.00071  -0.00000  -0.00000   0.00016
 165        6D+1        0.00000  -0.00000   0.00000  -0.00000  -0.00000
 166        6D-1       -0.00000   0.00000  -0.00000  -0.00000  -0.00000
 167        6D+2       -0.00017   0.00056  -0.00000  -0.00000   0.00016
 168        6D-2        0.00020  -0.00022  -0.00000  -0.00000   0.00015
 169 15  O  1S          0.00001  -0.00015   0.00000  -0.00000  -0.00000
 170        2S         -0.00049   0.00039  -0.00000  -0.00000  -0.00002
 171        3S          0.00177  -0.00130   0.00000  -0.00000   0.00001
 172        4PX         0.00023  -0.00035   0.00000   0.00000  -0.00002
 173        4PY        -0.00008   0.00009  -0.00000  -0.00000  -0.00002
 174        4PZ        -0.00000   0.00000   0.00000   0.00000   0.00000
 175        5PX        -0.00054   0.00093   0.00000   0.00000   0.00002
 176        5PY        -0.00019  -0.00006  -0.00000   0.00000  -0.00012
 177        5PZ         0.00000  -0.00000   0.00000   0.00000   0.00000
 178        6D 0        0.00006  -0.00004  -0.00000  -0.00000  -0.00003
 179        6D+1        0.00000  -0.00000  -0.00000  -0.00000  -0.00000
 180        6D-1       -0.00000   0.00000   0.00000   0.00000  -0.00000
 181        6D+2       -0.00010   0.00013  -0.00000  -0.00000   0.00002
 182        6D-2        0.00018  -0.00016  -0.00000  -0.00000   0.00003
 183 16  O  1S         -0.00005  -0.00014   0.00000   0.00000  -0.00000
 184        2S          0.00058   0.00025  -0.00000  -0.00000  -0.00002
 185        3S         -0.00205  -0.00078   0.00000   0.00000   0.00001
 186        4PX         0.00032   0.00027   0.00000   0.00000   0.00002
 187        4PY         0.00010   0.00006  -0.00000  -0.00000  -0.00002
 188        4PZ         0.00000   0.00000   0.00000   0.00000   0.00000
 189        5PX        -0.00076  -0.00075   0.00000  -0.00000  -0.00002
 190        5PY         0.00016  -0.00011   0.00000   0.00000  -0.00012
 191        5PZ        -0.00000  -0.00000  -0.00000  -0.00000  -0.00000
 192        6D 0       -0.00007  -0.00002  -0.00000  -0.00000  -0.00003
 193        6D+1       -0.00000   0.00000  -0.00000  -0.00000   0.00000
 194        6D-1        0.00000   0.00000   0.00000  -0.00000  -0.00000
 195        6D+2        0.00014   0.00010   0.00000  -0.00000   0.00002
 196        6D-2        0.00022   0.00010   0.00000   0.00000  -0.00003
 197 17  O  1S          0.00005   0.00037   0.00000   0.00000   0.00004
 198        2S          0.00014   0.00101   0.00000   0.00000   0.00004
 199        3S         -0.00033  -0.00241  -0.00000  -0.00000  -0.00047
 200        4PX        -0.00039   0.00005   0.00000  -0.00000  -0.00000
 201        4PY         0.00003   0.00019  -0.00000  -0.00000   0.00000
 202        4PZ        -0.00000  -0.00000  -0.00000   0.00000  -0.00000
 203        5PX         0.00139  -0.00019  -0.00000  -0.00000  -0.00000
 204        5PY        -0.00018  -0.00134  -0.00000  -0.00000  -0.00029
 205        5PZ         0.00000   0.00000   0.00000  -0.00000   0.00000
 206        6D 0        0.00005   0.00036   0.00000   0.00000  -0.00001
 207        6D+1       -0.00000  -0.00000   0.00000  -0.00000  -0.00000
 208        6D-1        0.00000   0.00000   0.00000  -0.00000   0.00000
 209        6D+2       -0.00000  -0.00000   0.00000   0.00000  -0.00003
 210        6D-2        0.00027  -0.00004   0.00000   0.00000  -0.00000
 211 18  H  1S          0.00015   0.00005   0.00000  -0.00000  -0.00027
 212        2S          0.00036   0.00009   0.00000  -0.00000   0.00087
 213        3PX         0.00014   0.00009   0.00000   0.00000  -0.00014
 214        3PY        -0.00003  -0.00007   0.00000   0.00000   0.00022
 215        3PZ         0.00000   0.00000   0.00000   0.00000   0.00000
 216 19  H  1S         -0.00013   0.00009  -0.00000   0.00000  -0.00027
 217        2S         -0.00032   0.00018  -0.00000   0.00000   0.00087
 218        3PX         0.00011  -0.00012  -0.00000  -0.00000   0.00014
 219        3PY         0.00001  -0.00007   0.00000  -0.00000   0.00022
 220        3PZ         0.00000  -0.00000  -0.00000  -0.00000   0.00000
                          11        12        13        14        15
                           O         O         O         O         O
     Eigenvalues --   -11.31685 -11.26689 -11.26687 -10.57017 -10.57010
   1 1   C  1S          0.00000  -0.01320  -0.00098  -0.00016  -0.00002
   2        2S          0.00000  -0.00023  -0.00014  -0.00031   0.00028
   3        3S         -0.00000   0.00012   0.00092  -0.00043  -0.00544
   4        4PX        -0.00000  -0.00006   0.00004  -0.00013   0.00023
   5        4PY         0.00000   0.00019  -0.00001  -0.00006  -0.00013
   6        4PZ        -0.00000  -0.00000  -0.00000   0.00000   0.00000
   7        5PX        -0.00000  -0.00126   0.00093   0.00072  -0.00986
   8        5PY         0.00000  -0.00169   0.00163   0.00841   0.00461
   9        5PZ        -0.00000   0.00000  -0.00000  -0.00000  -0.00000
  10        6D 0        0.00000   0.00043  -0.00009  -0.00016   0.00037
  11        6D+1        0.00000  -0.00000  -0.00000   0.00000  -0.00000
  12        6D-1       -0.00000   0.00000   0.00000   0.00000   0.00000
  13        6D+2        0.00000   0.00005  -0.00002  -0.00020  -0.00028
  14        6D-2       -0.00000  -0.00009   0.00016   0.00019   0.00031
  15 2   C  1S         -0.00000   0.99856   0.08261  -0.00022  -0.00022
  16        2S         -0.00000   0.00424   0.00024  -0.00042  -0.00039
  17        3S          0.00000  -0.00774   0.00058   0.00585   0.00570
  18        4PX         0.00000  -0.00004   0.00001  -0.00008   0.00005
  19        4PY         0.00000   0.00010   0.00000  -0.00005  -0.00000
  20        4PZ        -0.00000  -0.00000   0.00000   0.00000  -0.00000
  21        5PX         0.00000   0.00039  -0.00039  -0.00088   0.00228
  22        5PY         0.00000  -0.00057   0.00046   0.00387   0.00346
  23        5PZ         0.00000   0.00000  -0.00000  -0.00001  -0.00000
  24        6D 0       -0.00000  -0.00075  -0.00008  -0.00013  -0.00032
  25        6D+1        0.00000   0.00000  -0.00000   0.00000  -0.00000
  26        6D-1        0.00000  -0.00000  -0.00000  -0.00000  -0.00000
  27        6D+2       -0.00000  -0.00010  -0.00000  -0.00013  -0.00006
  28        6D-2       -0.00000   0.00001   0.00005  -0.00007   0.00056
  29 3   H  1S          0.00000  -0.00030  -0.00013  -0.00004  -0.00041
  30        2S          0.00000   0.00129   0.00005   0.00044   0.00158
  31        3PX         0.00000  -0.00045  -0.00005   0.00009  -0.00009
  32        3PY        -0.00000  -0.00027  -0.00002  -0.00005  -0.00021
  33        3PZ         0.00000   0.00000   0.00000   0.00000   0.00000
  34 4   H  1S         -0.00000  -0.00036   0.00000  -0.00026  -0.00025
  35        2S         -0.00000   0.00117   0.00028   0.00192  -0.00034
  36        3PX         0.00000   0.00045   0.00002  -0.00005  -0.00016
  37        3PY         0.00000  -0.00015  -0.00003   0.00008  -0.00011
  38        3PZ        -0.00000   0.00000   0.00000  -0.00000   0.00000
  39 5   C  1S         -0.00000   0.00121  -0.01319  -0.00002  -0.00016
  40        2S         -0.00000  -0.00010  -0.00025   0.00028  -0.00032
  41        3S          0.00000   0.00089   0.00026  -0.00545  -0.00028
  42        4PX        -0.00000  -0.00005   0.00005  -0.00023   0.00014
  43        4PY        -0.00000   0.00004  -0.00018   0.00013   0.00006
  44        4PZ         0.00000  -0.00000  -0.00000   0.00000   0.00000
  45        5PX        -0.00000  -0.00113   0.00109   0.00984  -0.00099
  46        5PY         0.00000  -0.00188   0.00140  -0.00484  -0.00828
  47        5PZ         0.00000  -0.00000   0.00000  -0.00000  -0.00000
  48        6D 0       -0.00000  -0.00016   0.00041   0.00036  -0.00017
  49        6D+1        0.00000   0.00000   0.00000   0.00000  -0.00000
  50        6D-1       -0.00000  -0.00000  -0.00000  -0.00000  -0.00000
  51        6D+2        0.00000  -0.00003   0.00004  -0.00029  -0.00019
  52        6D-2        0.00000   0.00018  -0.00006   0.00032   0.00018
  53 6   C  1S          0.00000  -0.08272   0.99855  -0.00022  -0.00022
  54        2S          0.00000  -0.00046   0.00422  -0.00040  -0.00041
  55        3S         -0.00000   0.00185  -0.00753   0.00586   0.00569
  56        4PX         0.00000  -0.00002   0.00004  -0.00005   0.00008
  57        4PY        -0.00000   0.00002  -0.00010   0.00000   0.00005
  58        4PZ         0.00000   0.00000  -0.00000  -0.00000   0.00000
  59        5PX         0.00000   0.00045  -0.00032  -0.00225   0.00094
  60        5PY         0.00000  -0.00054   0.00049  -0.00357  -0.00377
  61        5PZ        -0.00000  -0.00000   0.00000  -0.00000  -0.00001
  62        6D 0        0.00000   0.00004  -0.00076  -0.00032  -0.00012
  63        6D+1        0.00000   0.00000  -0.00000   0.00000  -0.00000
  64        6D-1        0.00000  -0.00000   0.00000   0.00000   0.00000
  65        6D+2       -0.00000   0.00001  -0.00010  -0.00006  -0.00013
  66        6D-2        0.00000   0.00005   0.00001   0.00055  -0.00009
  67 7   H  1S         -0.00000  -0.00007  -0.00032  -0.00041  -0.00003
  68        2S         -0.00000  -0.00017   0.00128   0.00159   0.00040
  69        3PX         0.00000  -0.00002   0.00045   0.00009  -0.00009
  70        3PY         0.00000  -0.00002   0.00027   0.00022   0.00004
  71        3PZ        -0.00000   0.00000   0.00000   0.00000   0.00000
  72 8   H  1S          0.00000   0.00006  -0.00035  -0.00026  -0.00026
  73        2S          0.00000   0.00008   0.00120  -0.00029   0.00193
  74        3PX         0.00000   0.00005  -0.00045   0.00017   0.00005
  75        3PY        -0.00000   0.00000   0.00016   0.00011  -0.00008
  76        3PZ         0.00000   0.00000   0.00000   0.00000  -0.00000
  77 9   Cl 1S          0.00000  -0.00000  -0.00001   0.00039   0.00001
  78        2S         -0.00000  -0.00003  -0.00005   1.00575  -0.01360
  79        3S          0.00000  -0.00004  -0.00005   0.00363   0.00004
  80        4S         -0.00000   0.00003  -0.00008  -0.01829  -0.00075
  81        5PX        -0.00000   0.00001   0.00001  -0.00496   0.00011
  82        5PY         0.00000  -0.00000  -0.00001   0.00200  -0.00003
  83        5PZ        -0.00000   0.00000  -0.00000   0.00000   0.00000
  84        6PX         0.00000   0.00005   0.00002  -0.00108   0.00017
  85        6PY        -0.00000   0.00000  -0.00003   0.00032   0.00001
  86        6PZ         0.00000   0.00000  -0.00000   0.00000   0.00000
  87        7PX         0.00000   0.00000  -0.00007   0.00476   0.00041
  88        7PY        -0.00000   0.00023  -0.00005  -0.00173   0.00032
  89        7PZ        -0.00000  -0.00000   0.00000  -0.00000  -0.00000
  90        8D 0        0.00000  -0.00001  -0.00006   0.00022  -0.00002
  91        8D+1        0.00000   0.00000  -0.00000   0.00000   0.00000
  92        8D-1        0.00000   0.00000   0.00000  -0.00000   0.00000
  93        8D+2       -0.00000  -0.00004   0.00002  -0.00016  -0.00017
  94        8D-2        0.00000  -0.00003  -0.00004   0.00017  -0.00011
  95 10  Cl 1S         -0.00000  -0.00001  -0.00001   0.00002   0.00039
  96        2S         -0.00000  -0.00005  -0.00004   0.01378   1.00575
  97        3S         -0.00000  -0.00004  -0.00005   0.00014   0.00363
  98        4S          0.00000  -0.00009   0.00001  -0.00125  -0.01826
  99        5PX        -0.00000  -0.00001  -0.00002   0.00002   0.00496
 100        5PY        -0.00000   0.00001   0.00000  -0.00003  -0.00200
 101        5PZ         0.00000  -0.00000   0.00000   0.00000   0.00000
 102        6PX        -0.00000  -0.00001  -0.00006  -0.00014   0.00108
 103        6PY        -0.00000   0.00003   0.00000  -0.00002  -0.00032
 104        6PZ        -0.00000  -0.00000   0.00000   0.00000   0.00000
 105        7PX         0.00000   0.00007   0.00001  -0.00054  -0.00474
 106        7PY        -0.00000   0.00009  -0.00022  -0.00027   0.00174
 107        7PZ         0.00000   0.00000  -0.00000  -0.00000  -0.00000
 108        8D 0       -0.00000  -0.00005  -0.00002  -0.00002   0.00022
 109        8D+1        0.00000   0.00000  -0.00000  -0.00000  -0.00000
 110        8D-1        0.00000  -0.00000  -0.00000  -0.00000   0.00000
 111        8D+2        0.00000   0.00003  -0.00003  -0.00017  -0.00015
 112        8D-2        0.00000  -0.00004  -0.00004  -0.00010   0.00017
 113 11  C  1S          0.70920   0.00000  -0.00000   0.00000   0.00000
 114        2S          0.00358  -0.00000   0.00000   0.00000   0.00000
 115        3S         -0.00905   0.00000   0.00000  -0.00000  -0.00000
 116        4PX         0.00004  -0.00000   0.00000  -0.00000  -0.00000
 117        4PY        -0.00025   0.00000  -0.00000  -0.00000  -0.00000
 118        4PZ         0.00000   0.00000   0.00000  -0.00000  -0.00000
 119        5PX        -0.00219   0.00000   0.00000  -0.00000  -0.00000
 120        5PY         0.00160  -0.00000   0.00000  -0.00000   0.00000
 121        5PZ        -0.00000   0.00000   0.00000   0.00000  -0.00000
 122        6D 0       -0.00074  -0.00000   0.00000  -0.00000   0.00000
 123        6D+1        0.00000  -0.00000  -0.00000   0.00000   0.00000
 124        6D-1       -0.00000  -0.00000  -0.00000   0.00000  -0.00000
 125        6D+2        0.00009   0.00000   0.00000  -0.00000  -0.00000
 126        6D-2       -0.00078  -0.00000   0.00000   0.00000   0.00000
 127 12  C  1S         -0.70879   0.00000  -0.00000  -0.00000  -0.00000
 128        2S         -0.00358   0.00000   0.00000  -0.00000  -0.00000
 129        3S          0.00905  -0.00000  -0.00000   0.00000   0.00000
 130        4PX         0.00004  -0.00000   0.00000  -0.00000   0.00000
 131        4PY         0.00025  -0.00000   0.00000  -0.00000   0.00000
 132        4PZ         0.00000  -0.00000   0.00000  -0.00000  -0.00000
 133        5PX        -0.00219   0.00000   0.00000  -0.00000  -0.00000
 134        5PY        -0.00160   0.00000   0.00000  -0.00000  -0.00000
 135        5PZ        -0.00000  -0.00000  -0.00000  -0.00000  -0.00000
 136        6D 0        0.00074   0.00000   0.00000   0.00000  -0.00000
 137        6D+1       -0.00000  -0.00000   0.00000   0.00000  -0.00000
 138        6D-1       -0.00000   0.00000  -0.00000  -0.00000   0.00000
 139        6D+2       -0.00009  -0.00000  -0.00000   0.00000  -0.00000
 140        6D-2       -0.00078   0.00000   0.00000   0.00000   0.00000
 141 13  C  1S         -0.00224   0.00000  -0.00000  -0.00000   0.00000
 142        2S         -0.00002   0.00000   0.00000  -0.00000   0.00000
 143        3S          0.00185   0.00000  -0.00000  -0.00000   0.00000
 144        4PX        -0.00003   0.00000   0.00000  -0.00000  -0.00000
 145        4PY         0.00003   0.00000   0.00000   0.00000  -0.00000
 146        4PZ        -0.00000   0.00000  -0.00000   0.00000  -0.00000
 147        5PX         0.00032   0.00000   0.00000  -0.00000  -0.00000
 148        5PY         0.00066  -0.00000  -0.00000  -0.00000  -0.00000
 149        5PZ        -0.00000  -0.00000   0.00000  -0.00000  -0.00000
 150        6D 0        0.00026   0.00000   0.00000   0.00000   0.00000
 151        6D+1       -0.00000  -0.00000   0.00000   0.00000   0.00000
 152        6D-1        0.00000  -0.00000  -0.00000   0.00000   0.00000
 153        6D+2        0.00003   0.00000  -0.00000   0.00000   0.00000
 154        6D-2       -0.00032   0.00000  -0.00000   0.00000  -0.00000
 155 14  C  1S          0.00224   0.00000  -0.00000  -0.00000  -0.00000
 156        2S          0.00002  -0.00000  -0.00000  -0.00000  -0.00000
 157        3S         -0.00185  -0.00000   0.00000   0.00000   0.00000
 158        4PX        -0.00003   0.00000   0.00000  -0.00000  -0.00000
 159        4PY        -0.00003   0.00000  -0.00000  -0.00000  -0.00000
 160        4PZ        -0.00000  -0.00000  -0.00000   0.00000   0.00000
 161        5PX         0.00032   0.00000  -0.00000  -0.00000  -0.00000
 162        5PY        -0.00066   0.00000   0.00000   0.00000   0.00000
 163        5PZ        -0.00000   0.00000   0.00000  -0.00000  -0.00000
 164        6D 0       -0.00026   0.00000  -0.00000  -0.00000  -0.00000
 165        6D+1        0.00000  -0.00000  -0.00000   0.00000   0.00000
 166        6D-1        0.00000   0.00000  -0.00000  -0.00000   0.00000
 167        6D+2       -0.00003   0.00000  -0.00000  -0.00000   0.00000
 168        6D-2       -0.00032   0.00000   0.00000   0.00000   0.00000
 169 15  O  1S         -0.00004   0.00000   0.00000   0.00000  -0.00000
 170        2S         -0.00006  -0.00000  -0.00000  -0.00000  -0.00000
 171        3S          0.00002  -0.00000   0.00000   0.00000   0.00000
 172        4PX         0.00005   0.00000   0.00000  -0.00000   0.00000
 173        4PY         0.00001  -0.00000  -0.00000  -0.00000  -0.00000
 174        4PZ        -0.00000   0.00000   0.00000  -0.00000   0.00000
 175        5PX         0.00005  -0.00000  -0.00000  -0.00000  -0.00000
 176        5PY         0.00015  -0.00000  -0.00000   0.00000  -0.00000
 177        5PZ         0.00000   0.00000  -0.00000  -0.00000  -0.00000
 178        6D 0        0.00003   0.00000  -0.00000  -0.00000   0.00000
 179        6D+1        0.00000  -0.00000   0.00000   0.00000   0.00000
 180        6D-1        0.00000   0.00000   0.00000  -0.00000  -0.00000
 181        6D+2       -0.00005   0.00000   0.00000  -0.00000  -0.00000
 182        6D-2       -0.00002   0.00000  -0.00000  -0.00000   0.00000
 183 16  O  1S          0.00004  -0.00000  -0.00000  -0.00000   0.00000
 184        2S          0.00006  -0.00000  -0.00000   0.00000   0.00000
 185        3S         -0.00002   0.00000   0.00000   0.00000  -0.00000
 186        4PX         0.00005  -0.00000   0.00000  -0.00000   0.00000
 187        4PY        -0.00001   0.00000   0.00000  -0.00000  -0.00000
 188        4PZ        -0.00000  -0.00000  -0.00000  -0.00000   0.00000
 189        5PX         0.00005  -0.00000   0.00000   0.00000  -0.00000
 190        5PY        -0.00015  -0.00000   0.00000  -0.00000  -0.00000
 191        5PZ         0.00000   0.00000  -0.00000   0.00000  -0.00000
 192        6D 0       -0.00003   0.00000   0.00000  -0.00000   0.00000
 193        6D+1        0.00000  -0.00000   0.00000  -0.00000   0.00000
 194        6D-1       -0.00000   0.00000   0.00000  -0.00000   0.00000
 195        6D+2        0.00005   0.00000   0.00000   0.00000   0.00000
 196        6D-2       -0.00002  -0.00000   0.00000   0.00000  -0.00000
 197 17  O  1S          0.00000   0.00000  -0.00000   0.00000   0.00000
 198        2S          0.00000   0.00000   0.00000  -0.00000   0.00000
 199        3S         -0.00000   0.00000  -0.00000   0.00000  -0.00000
 200        4PX         0.00004  -0.00000   0.00000  -0.00000  -0.00000
 201        4PY         0.00000  -0.00000  -0.00000   0.00000  -0.00000
 202        4PZ         0.00000  -0.00000   0.00000   0.00000  -0.00000
 203        5PX         0.00016   0.00000  -0.00000  -0.00000   0.00000
 204        5PY        -0.00000  -0.00000   0.00000   0.00000  -0.00000
 205        5PZ         0.00000  -0.00000  -0.00000   0.00000   0.00000
 206        6D 0       -0.00000   0.00000  -0.00000  -0.00000   0.00000
 207        6D+1        0.00000   0.00000   0.00000   0.00000   0.00000
 208        6D-1       -0.00000  -0.00000  -0.00000   0.00000   0.00000
 209        6D+2       -0.00000   0.00000  -0.00000   0.00000   0.00000
 210        6D-2        0.00002  -0.00000   0.00000  -0.00000  -0.00000
 211 18  H  1S         -0.00079  -0.00000  -0.00000   0.00000   0.00000
 212        2S          0.00016   0.00000   0.00000  -0.00000  -0.00000
 213        3PX        -0.00034   0.00000  -0.00000   0.00000   0.00000
 214        3PY         0.00053  -0.00000  -0.00000   0.00000  -0.00000
 215        3PZ        -0.00000  -0.00000   0.00000  -0.00000   0.00000
 216 19  H  1S          0.00079  -0.00000   0.00000   0.00000  -0.00000
 217        2S         -0.00016  -0.00000  -0.00000   0.00000   0.00000
 218        3PX        -0.00034  -0.00000  -0.00000   0.00000   0.00000
 219        3PY        -0.00053   0.00000  -0.00000  -0.00000   0.00000
 220        3PZ        -0.00000   0.00000  -0.00000   0.00000   0.00000
                          16        17        18        19        20
                           O         O         O         O         O
     Eigenvalues --    -8.03774  -8.03768  -8.03438  -8.03431  -8.03420
   1 1   C  1S         -0.00002  -0.00008  -0.00002   0.00003  -0.00000
   2        2S         -0.00004   0.00017  -0.00005   0.00005  -0.00000
   3        3S          0.00007  -0.00041  -0.00070  -0.00085   0.00000
   4        4PX        -0.00003  -0.00025  -0.00005   0.00002  -0.00000
   5        4PY        -0.00001   0.00011   0.00002   0.00003   0.00000
   6        4PZ        -0.00000  -0.00000  -0.00000   0.00000   0.00000
   7        5PX        -0.00001  -0.00069   0.00020  -0.00013   0.00000
   8        5PY        -0.00062   0.00024   0.00009   0.00028  -0.00000
   9        5PZ         0.00000  -0.00000  -0.00000  -0.00000   0.00015
  10        6D 0       -0.00002  -0.00011   0.00001   0.00003  -0.00000
  11        6D+1       -0.00000   0.00000  -0.00000  -0.00000   0.00001
  12        6D-1       -0.00000  -0.00000   0.00000   0.00000   0.00003
  13        6D+2       -0.00003   0.00017   0.00008  -0.00009  -0.00000
  14        6D-2       -0.00004  -0.00021  -0.00005  -0.00010   0.00000
  15 2   C  1S         -0.00001   0.00003  -0.00002  -0.00008   0.00000
  16        2S         -0.00002   0.00004  -0.00004  -0.00013   0.00000
  17        3S         -0.00035   0.00017   0.00011   0.00056  -0.00000
  18        4PX        -0.00000  -0.00002  -0.00003   0.00004   0.00000
  19        4PY        -0.00003   0.00004  -0.00001  -0.00004  -0.00000
  20        4PZ         0.00000  -0.00000   0.00000   0.00000   0.00003
  21        5PX         0.00015   0.00028  -0.00002  -0.00024  -0.00000
  22        5PY        -0.00025   0.00012   0.00058   0.00063  -0.00000
  23        5PZ         0.00000  -0.00000  -0.00000  -0.00000  -0.00010
  24        6D 0       -0.00001   0.00004  -0.00005  -0.00006   0.00000
  25        6D+1        0.00000   0.00000   0.00000   0.00000  -0.00001
  26        6D-1        0.00000   0.00000  -0.00000  -0.00000  -0.00001
  27        6D+2        0.00002  -0.00002  -0.00006   0.00001   0.00000
  28        6D-2        0.00000  -0.00003  -0.00006  -0.00008  -0.00000
  29 3   H  1S          0.00001   0.00005   0.00007  -0.00007   0.00000
  30        2S          0.00001   0.00012   0.00014   0.00027  -0.00000
  31        3PX        -0.00001   0.00002   0.00003   0.00005   0.00000
  32        3PY         0.00000  -0.00000  -0.00001   0.00000   0.00000
  33        3PZ        -0.00000   0.00000   0.00000   0.00000   0.00001
  34 4   H  1S          0.00000  -0.00002  -0.00006  -0.00002   0.00000
  35        2S         -0.00020  -0.00007   0.00055   0.00022  -0.00000
  36        3PX         0.00002  -0.00000   0.00002   0.00001   0.00000
  37        3PY        -0.00000   0.00001   0.00006  -0.00002  -0.00000
  38        3PZ         0.00000  -0.00000  -0.00000   0.00000  -0.00000
  39 5   C  1S          0.00008   0.00003  -0.00003   0.00002   0.00000
  40        2S         -0.00017   0.00004  -0.00005   0.00005   0.00000
  41        3S          0.00041  -0.00006   0.00085   0.00070  -0.00000
  42        4PX        -0.00025  -0.00003   0.00002  -0.00005   0.00000
  43        4PY         0.00011  -0.00001   0.00003   0.00002   0.00000
  44        4PZ         0.00000   0.00000  -0.00000   0.00000   0.00008
  45        5PX        -0.00069  -0.00001  -0.00013   0.00020   0.00000
  46        5PY         0.00024  -0.00062   0.00028   0.00009   0.00000
  47        5PZ         0.00000  -0.00000   0.00000   0.00000  -0.00041
  48        6D 0        0.00011   0.00002  -0.00003  -0.00001   0.00000
  49        6D+1        0.00000  -0.00000  -0.00000  -0.00000   0.00006
  50        6D-1       -0.00000  -0.00000   0.00000   0.00000  -0.00003
  51        6D+2       -0.00017   0.00003   0.00009  -0.00008   0.00000
  52        6D-2        0.00021   0.00004   0.00010   0.00005   0.00000
  53 6   C  1S         -0.00003   0.00001   0.00008   0.00002   0.00000
  54        2S         -0.00004   0.00002   0.00013   0.00004   0.00000
  55        3S         -0.00017   0.00035  -0.00056  -0.00011   0.00000
  56        4PX        -0.00002  -0.00000   0.00004  -0.00003   0.00000
  57        4PY         0.00004  -0.00003  -0.00004  -0.00001  -0.00000
  58        4PZ         0.00000  -0.00000  -0.00000  -0.00000   0.00003
  59        5PX         0.00028   0.00015  -0.00024  -0.00001  -0.00000
  60        5PY         0.00012  -0.00025   0.00063   0.00058   0.00000
  61        5PZ         0.00000  -0.00000   0.00000   0.00000   0.00009
  62        6D 0       -0.00004   0.00001   0.00006   0.00005  -0.00000
  63        6D+1        0.00000   0.00000   0.00000   0.00000  -0.00003
  64        6D-1        0.00000   0.00000  -0.00000  -0.00000  -0.00004
  65        6D+2        0.00002  -0.00002  -0.00001   0.00006  -0.00000
  66        6D-2        0.00003  -0.00000   0.00008   0.00006   0.00000
  67 7   H  1S         -0.00005  -0.00001   0.00007  -0.00007   0.00000
  68        2S         -0.00012  -0.00001  -0.00027  -0.00014   0.00000
  69        3PX         0.00002  -0.00001   0.00005   0.00003   0.00000
  70        3PY        -0.00000   0.00000   0.00000  -0.00001   0.00000
  71        3PZ        -0.00000   0.00000  -0.00000  -0.00000   0.00000
  72 8   H  1S          0.00002  -0.00000   0.00002   0.00006  -0.00000
  73        2S          0.00007   0.00020  -0.00022  -0.00054  -0.00000
  74        3PX        -0.00000   0.00002   0.00001   0.00002   0.00000
  75        3PY         0.00001  -0.00000  -0.00002   0.00006   0.00000
  76        3PZ         0.00000  -0.00000  -0.00000   0.00000  -0.00001
  77 9   Cl 1S         -0.00003   0.00000   0.00001   0.00001  -0.00000
  78        2S          0.00465   0.00002   0.00008   0.00004   0.00000
  79        3S         -0.00112   0.00002   0.00004   0.00005  -0.00000
  80        4S          0.00070  -0.00010  -0.00009  -0.00020   0.00000
  81        5PX         0.92304   0.00117   0.38442  -0.00074   0.00050
  82        5PY        -0.38449  -0.00050   0.92287  -0.00181   0.00032
  83        5PZ        -0.00034  -0.00000  -0.00049  -0.00000   0.99976
  84        6PX         0.00026   0.00000  -0.00062   0.00000  -0.00000
  85        6PY        -0.00010   0.00000  -0.00149  -0.00001  -0.00000
  86        6PZ        -0.00000   0.00000   0.00000   0.00000  -0.00149
  87        7PX         0.00049   0.00005   0.00065   0.00008   0.00000
  88        7PY        -0.00022   0.00001   0.00154  -0.00001   0.00000
  89        7PZ        -0.00000  -0.00000  -0.00000  -0.00000   0.00146
  90        8D 0        0.00016  -0.00000   0.00001  -0.00000   0.00000
  91        8D+1        0.00000   0.00000   0.00000   0.00000  -0.00027
  92        8D-1       -0.00000   0.00000   0.00000   0.00000   0.00011
  93        8D+2       -0.00019  -0.00001  -0.00020  -0.00000  -0.00000
  94        8D-2        0.00018  -0.00000  -0.00021   0.00000  -0.00000
  95 10  Cl 1S         -0.00000   0.00003  -0.00001  -0.00001  -0.00000
  96        2S         -0.00001  -0.00465  -0.00004  -0.00008  -0.00000
  97        3S         -0.00002   0.00112  -0.00005  -0.00004  -0.00000
  98        4S          0.00010  -0.00070   0.00020   0.00009   0.00000
  99        5PX        -0.00118   0.92306   0.00076   0.38439  -0.00000
 100        5PY         0.00048  -0.38446   0.00179   0.92288   0.00000
 101        5PZ        -0.00000   0.00033   0.00000   0.00069   0.00195
 102        6PX         0.00000   0.00026   0.00000  -0.00062   0.00000
 103        6PY         0.00000  -0.00010  -0.00002  -0.00149   0.00000
 104        6PZ        -0.00000   0.00000  -0.00000  -0.00000  -0.00001
 105        7PX         0.00004   0.00049   0.00009   0.00065   0.00000
 106        7PY         0.00001  -0.00022  -0.00000   0.00154  -0.00000
 107        7PZ         0.00000   0.00000   0.00000   0.00000  -0.00001
 108        8D 0        0.00000  -0.00016   0.00000  -0.00001  -0.00000
 109        8D+1        0.00000   0.00000   0.00000   0.00000  -0.00001
 110        8D-1        0.00000  -0.00000   0.00000   0.00000   0.00001
 111        8D+2        0.00000   0.00019   0.00000   0.00020   0.00000
 112        8D-2        0.00000  -0.00018  -0.00000   0.00021  -0.00000
 113 11  C  1S          0.00000   0.00000  -0.00000   0.00000   0.00000
 114        2S          0.00000   0.00000   0.00000  -0.00000   0.00000
 115        3S         -0.00000  -0.00000  -0.00000   0.00000  -0.00000
 116        4PX         0.00000  -0.00000   0.00000   0.00000   0.00000
 117        4PY        -0.00000  -0.00000   0.00000  -0.00000   0.00000
 118        4PZ        -0.00000   0.00000  -0.00000  -0.00000  -0.00000
 119        5PX        -0.00000   0.00000   0.00000   0.00000  -0.00000
 120        5PY         0.00000   0.00000  -0.00000  -0.00000   0.00000
 121        5PZ        -0.00000  -0.00000  -0.00000   0.00000  -0.00000
 122        6D 0        0.00000   0.00000  -0.00000  -0.00000   0.00000
 123        6D+1       -0.00000   0.00000   0.00000  -0.00000   0.00000
 124        6D-1        0.00000   0.00000  -0.00000   0.00000  -0.00000
 125        6D+2        0.00000  -0.00000  -0.00000   0.00000  -0.00000
 126        6D-2       -0.00000  -0.00000  -0.00000  -0.00000  -0.00000
 127 12  C  1S         -0.00000   0.00000   0.00000  -0.00000   0.00000
 128        2S         -0.00000   0.00000   0.00000   0.00000  -0.00000
 129        3S          0.00000   0.00000  -0.00000  -0.00000   0.00000
 130        4PX         0.00000  -0.00000  -0.00000   0.00000   0.00000
 131        4PY         0.00000   0.00000   0.00000   0.00000  -0.00000
 132        4PZ         0.00000  -0.00000  -0.00000  -0.00000  -0.00000
 133        5PX        -0.00000   0.00000   0.00000   0.00000  -0.00000
 134        5PY        -0.00000  -0.00000   0.00000  -0.00000  -0.00000
 135        5PZ         0.00000   0.00000  -0.00000  -0.00000   0.00000
 136        6D 0       -0.00000  -0.00000   0.00000   0.00000  -0.00000
 137        6D+1       -0.00000   0.00000   0.00000   0.00000   0.00000
 138        6D-1       -0.00000  -0.00000  -0.00000   0.00000   0.00000
 139        6D+2        0.00000   0.00000  -0.00000  -0.00000  -0.00000
 140        6D-2       -0.00000   0.00000   0.00000   0.00000   0.00000
 141 13  C  1S          0.00000  -0.00000  -0.00000  -0.00000  -0.00000
 142        2S          0.00000   0.00000  -0.00000  -0.00000  -0.00000
 143        3S          0.00000   0.00000   0.00000  -0.00000   0.00000
 144        4PX        -0.00000   0.00000  -0.00000  -0.00000   0.00000
 145        4PY        -0.00000   0.00000  -0.00000   0.00000  -0.00000
 146        4PZ         0.00000  -0.00000  -0.00000  -0.00000  -0.00000
 147        5PX        -0.00000  -0.00000  -0.00000  -0.00000   0.00000
 148        5PY        -0.00000   0.00000   0.00000  -0.00000   0.00000
 149        5PZ         0.00000   0.00000  -0.00000  -0.00000   0.00000
 150        6D 0       -0.00000  -0.00000   0.00000   0.00000   0.00000
 151        6D+1       -0.00000   0.00000  -0.00000   0.00000  -0.00000
 152        6D-1       -0.00000   0.00000   0.00000  -0.00000  -0.00000
 153        6D+2        0.00000  -0.00000  -0.00000  -0.00000  -0.00000
 154        6D-2        0.00000   0.00000  -0.00000  -0.00000  -0.00000
 155 14  C  1S          0.00000  -0.00000   0.00000  -0.00000   0.00000
 156        2S          0.00000  -0.00000   0.00000   0.00000   0.00000
 157        3S         -0.00000  -0.00000   0.00000  -0.00000  -0.00000
 158        4PX        -0.00000   0.00000  -0.00000   0.00000  -0.00000
 159        4PY        -0.00000  -0.00000   0.00000  -0.00000   0.00000
 160        4PZ         0.00000  -0.00000   0.00000   0.00000   0.00000
 161        5PX         0.00000  -0.00000   0.00000  -0.00000   0.00000
 162        5PY        -0.00000  -0.00000  -0.00000   0.00000  -0.00000
 163        5PZ         0.00000  -0.00000   0.00000   0.00000  -0.00000
 164        6D 0        0.00000  -0.00000   0.00000   0.00000   0.00000
 165        6D+1        0.00000  -0.00000  -0.00000   0.00000  -0.00000
 166        6D-1       -0.00000   0.00000  -0.00000   0.00000   0.00000
 167        6D+2       -0.00000   0.00000   0.00000  -0.00000  -0.00000
 168        6D-2       -0.00000   0.00000   0.00000  -0.00000   0.00000
 169 15  O  1S         -0.00000  -0.00000   0.00000   0.00000   0.00000
 170        2S         -0.00000   0.00000   0.00000   0.00000  -0.00000
 171        3S          0.00000  -0.00000  -0.00000   0.00000   0.00000
 172        4PX         0.00000   0.00000  -0.00000  -0.00000  -0.00000
 173        4PY         0.00000  -0.00000   0.00000   0.00000   0.00000
 174        4PZ        -0.00000   0.00000   0.00000   0.00000  -0.00000
 175        5PX        -0.00000   0.00000   0.00000   0.00000  -0.00000
 176        5PY         0.00000  -0.00000  -0.00000  -0.00000   0.00000
 177        5PZ        -0.00000   0.00000  -0.00000   0.00000  -0.00000
 178        6D 0        0.00000  -0.00000  -0.00000  -0.00000  -0.00000
 179        6D+1        0.00000  -0.00000  -0.00000  -0.00000  -0.00000
[...]
                            0.070%  O   15 s(  0.00%)p 1.00( 99.94%)d 0.00(  0.06%)
                           69.145%  O   16 s(  0.00%)p 1.00( 99.78%)d 0.00(  0.22%)
                            0.041%  O   17 s(  0.00%)p 1.00( 95.08%)d 0.05(  4.92%)
    20. (2.00000)  99.4161%  BD ( 1) C  13 O  17      
                            0.090%  C   11 s( 50.69%)p 0.88( 44.53%)d 0.09(  4.78%)
                            0.018%  C   12 s( 23.30%)p 2.72( 63.35%)d 0.57( 13.35%)
                           28.849%  C   13 s( 28.21%)p 2.53( 71.27%)d 0.02(  0.52%)
                            0.292%  C   14 s( 11.44%)p 7.19( 82.19%)d 0.56(  6.37%)
                            0.073%  O   15 s( 46.42%)p 1.13( 52.40%)d 0.03(  1.18%)
                            0.022%  O   16 s( 30.45%)p 2.26( 68.95%)d 0.02(  0.60%)
                           70.593%  O   17 s( 30.33%)p 2.29( 69.55%)d 0.00(  0.12%)
                            0.060%  H   18 s( 99.71%)p 0.00(  0.29%)
    21. (2.00000)  99.8337%  BD ( 1) C  14 O  15      
                            0.021%  C   11 s(  8.18%)p10.03( 82.03%)d 1.20(  9.80%)
                            0.047%  C   12 s(  0.94%)p99.99( 94.29%)d 5.09(  4.77%)
                            0.055%  C   13 s( 43.04%)p 1.29( 55.52%)d 0.03(  1.45%)
                           32.933%  C   14 s( 34.13%)p 1.92( 65.59%)d 0.01(  0.28%)
                           66.908%  O   15 s( 44.38%)p 1.25( 55.50%)d 0.00(  0.12%)
                            0.030%  O   17 s( 23.33%)p 3.22( 75.14%)d 0.07(  1.53%)
    22. (2.00000)  99.0422%  BD ( 2) C  14 O  15      
                            0.280%  C   11 s(  0.00%)p 1.00( 99.91%)d 0.00(  0.09%)
                            0.434%  C   12 s(  0.00%)p 1.00( 98.69%)d 0.01(  1.31%)
                            0.132%  C   13 s(  0.00%)p 1.00( 98.97%)d 0.01(  1.03%)
                           29.898%  C   14 s(  0.00%)p 1.00( 99.14%)d 0.01(  0.86%)
                           69.144%  O   15 s(  0.00%)p 1.00( 99.78%)d 0.00(  0.22%)
                            0.070%  O   16 s(  0.00%)p 1.00( 99.94%)d 0.00(  0.06%)
                            0.041%  O   17 s(  0.00%)p 1.00( 95.08%)d 0.05(  4.92%)
    23. (2.00000)  99.4161%  BD ( 1) C  14 O  17      
                            0.018%  C   11 s( 23.30%)p 2.72( 63.35%)d 0.57( 13.35%)
                            0.090%  C   12 s( 50.69%)p 0.88( 44.53%)d 0.09(  4.78%)
                            0.292%  C   13 s( 11.44%)p 7.19( 82.19%)d 0.56(  6.37%)
                           28.848%  C   14 s( 28.21%)p 2.53( 71.27%)d 0.02(  0.52%)
                            0.022%  O   15 s( 30.45%)p 2.26( 68.95%)d 0.02(  0.60%)
                            0.073%  O   16 s( 46.42%)p 1.13( 52.40%)d 0.03(  1.18%)
                           70.594%  O   17 s( 30.33%)p 2.29( 69.54%)d 0.00(  0.12%)
                            0.060%  H   19 s( 99.71%)p 0.00(  0.29%)
    24. (2.00000)  99.9251%  CR ( 1) C   1            
                           99.939%  C    1 s( 99.99%)p 0.00(  0.01%)d 0.00(  0.00%)
                            0.022%  C    2 s( 17.11%)p 4.71( 80.52%)d 0.14(  2.37%)
                            0.023%  C    5 s( 18.38%)p 4.33( 79.54%)d 0.11(  2.09%)
    25. (2.00000)  99.9459%  CR ( 1) C   2            
                            0.032%  C    1 s( 14.60%)p 5.76( 84.08%)d 0.09(  1.32%)
                           99.950%  C    2 s(100.00%)p 0.00(  0.00%)d 0.00(  0.00%)
    26. (2.00000)  99.9251%  CR ( 1) C   5            
                            0.023%  C    1 s( 18.37%)p 4.33( 79.54%)d 0.11(  2.09%)
                           99.939%  C    5 s( 99.99%)p 0.00(  0.01%)d 0.00(  0.00%)
                            0.022%  C    6 s( 17.11%)p 4.71( 80.52%)d 0.14(  2.37%)
    27. (2.00000)  99.9459%  CR ( 1) C   6            
                            0.032%  C    5 s( 14.60%)p 5.76( 84.08%)d 0.09(  1.32%)
                           99.950%  C    6 s(100.00%)p 0.00(  0.00%)d 0.00(  0.00%)
    28. (2.00000) 100.0000%  CR ( 1)Cl   9            
                          100.000% Cl    9 s(100.00%)p 0.00(  0.00%)d 0.00(  0.00%)
    29. (2.00000)  99.9874%  CR ( 2)Cl   9            
                           99.988% Cl    9 s(100.00%)p 0.00(  0.00%)d 0.00(  0.00%)
    30. (2.00000)  99.9969%  CR ( 3)Cl   9            
                           99.997% Cl    9 s(  0.00%)p 1.00(100.00%)d 0.00(  0.00%)
    31. (2.00000)  99.9991%  CR ( 4)Cl   9            
                           99.999% Cl    9 s(  0.00%)p 1.00(100.00%)d 0.00(  0.00%)
    32. (2.00000)  99.9998%  CR ( 5)Cl   9            
                          100.000% Cl    9 s(  0.00%)p 1.00(100.00%)d 0.00(  0.00%)
    33. (2.00000) 100.0000%  CR ( 1)Cl  10            
                          100.000% Cl   10 s(100.00%)p 0.00(  0.00%)d 0.00(  0.00%)
    34. (2.00000)  99.9874%  CR ( 2)Cl  10            
                           99.988% Cl   10 s(100.00%)p 0.00(  0.00%)d 0.00(  0.00%)
    35. (2.00000)  99.9969%  CR ( 3)Cl  10            
                           99.997% Cl   10 s(  0.00%)p 1.00(100.00%)d 0.00(  0.00%)
    36. (2.00000)  99.9991%  CR ( 4)Cl  10            
                           99.999% Cl   10 s(  0.00%)p 1.00(100.00%)d 0.00(  0.00%)
    37. (2.00000)  99.9998%  CR ( 5)Cl  10            
                          100.000% Cl   10 s(  0.00%)p 1.00(100.00%)d 0.00(  0.00%)
    38. (2.00000)  99.9471%  CR ( 1) C  11            
                           99.953%  C   11 s( 99.99%)p 0.00(  0.00%)d 0.00(  0.00%)
                            0.020%  C   12 s( 18.18%)p 4.37( 79.46%)d 0.13(  2.36%)
                            0.015%  C   13 s( 23.54%)p 3.13( 73.62%)d 0.12(  2.84%)
    39. (2.00000)  99.9471%  CR ( 1) C  12            
                            0.020%  C   11 s( 18.18%)p 4.37( 79.46%)d 0.13(  2.36%)
                           99.953%  C   12 s( 99.99%)p 0.00(  0.00%)d 0.00(  0.00%)
                            0.015%  C   14 s( 23.54%)p 3.13( 73.62%)d 0.12(  2.84%)
    40. (2.00000)  99.9655%  CR ( 1) C  13            
                            0.013%  C   11 s( 11.40%)p 7.38( 84.20%)d 0.39(  4.40%)
                           99.973%  C   13 s( 99.99%)p 0.00(  0.01%)d 0.00(  0.00%)
    41. (2.00000)  99.9655%  CR ( 1) C  14            
                            0.013%  C   12 s( 11.40%)p 7.39( 84.20%)d 0.39(  4.40%)
                           99.973%  C   14 s( 99.99%)p 0.00(  0.01%)d 0.00(  0.00%)
    42. (2.00000)  99.9886%  CR ( 1) O  15            
                            0.010%  C   14 s( 17.69%)p 4.19( 74.16%)d 0.46(  8.15%)
                           99.989%  O   15 s(100.00%)p 0.00(  0.00%)d 0.00(  0.00%)
    43. (2.00000)  99.9886%  CR ( 1) O  16            
                            0.010%  C   13 s( 17.69%)p 4.19( 74.16%)d 0.46(  8.15%)
                           99.989%  O   16 s(100.00%)p 0.00(  0.00%)d 0.00(  0.00%)
    44. (2.00000)  99.9864%  CR ( 1) O  17            
                           99.987%  O   17 s(100.00%)p 0.00(  0.00%)d 0.00(  0.00%)
    45. (2.00000)  99.6007%  LP ( 1)Cl   9            
                            0.053%  C    1 s( 27.30%)p 2.62( 71.54%)d 0.04(  1.16%)
                            0.015%  C    2 s(  6.03%)p15.55( 93.83%)d 0.02(  0.13%)
                            0.020%  H    4 s( 99.87%)p 0.00(  0.13%)
                            0.208%  C    5 s( 25.11%)p 2.70( 67.71%)d 0.29(  7.18%)
                            0.065%  C    6 s( 10.49%)p 8.44( 88.60%)d 0.09(  0.91%)
                            0.018%  H    7 s( 99.73%)p 0.00(  0.27%)
                           99.601% Cl    9 s( 80.96%)p 0.23( 19.00%)d 0.00(  0.04%)
    46. (2.00000)  98.6586%  LP ( 2)Cl   9            
                            0.336%  C    1 s( 53.66%)p 0.85( 45.82%)d 0.01(  0.51%)
                            0.066%  C    2 s( 55.64%)p 0.76( 42.33%)d 0.04(  2.03%)
                            0.021%  H    3 s( 99.93%)p 0.00(  0.07%)
                            0.033%  H    4 s( 99.20%)p 0.01(  0.80%)
                            0.556%  C    5 s(  0.11%)p99.99( 90.56%)d84.01(  9.33%)
                            0.199%  C    6 s( 75.26%)p 0.31( 23.42%)d 0.02(  1.32%)
                            0.065%  H    8 s( 99.67%)p 0.00(  0.33%)
                           98.659% Cl    9 s(  0.07%)p99.99( 99.92%)d 0.21(  0.01%)
                            0.065% Cl   10 s( 19.81%)p 4.02( 79.62%)d 0.03(  0.57%)
    47. (2.00000)  97.7729%  LP ( 3)Cl   9            
                            0.077%  C    1 s(  0.00%)p 1.00( 99.40%)d 0.01(  0.60%)
                            1.079%  C    5 s(  0.00%)p 1.00( 92.76%)d 0.08(  7.24%)
                            1.064%  C    6 s(  0.00%)p 1.00( 99.77%)d 0.00(  0.23%)
                           97.773% Cl    9 s(  0.00%)p 1.00( 99.98%)d 0.00(  0.02%)
    48. (2.00000)  99.6005%  LP ( 1)Cl  10            
                            0.208%  C    1 s( 25.11%)p 2.70( 67.71%)d 0.29(  7.18%)
                            0.065%  C    2 s( 10.50%)p 8.43( 88.59%)d 0.09(  0.91%)
                            0.018%  H    3 s( 99.73%)p 0.00(  0.27%)
                            0.053%  C    5 s( 27.29%)p 2.62( 71.55%)d 0.04(  1.16%)
                            0.015%  C    6 s(  6.03%)p15.55( 93.84%)d 0.02(  0.13%)
                            0.020%  H    8 s( 99.87%)p 0.00(  0.13%)
                           99.601% Cl   10 s( 80.97%)p 0.23( 18.99%)d 0.00(  0.04%)
    49. (2.00000)  98.6579%  LP ( 2)Cl  10            
                            0.556%  C    1 s(  0.11%)p99.99( 90.56%)d83.96(  9.33%)
                            0.199%  C    2 s( 75.27%)p 0.31( 23.41%)d 0.02(  1.32%)
                            0.065%  H    4 s( 99.67%)p 0.00(  0.33%)
                            0.336%  C    5 s( 53.66%)p 0.85( 45.82%)d 0.01(  0.51%)
                            0.066%  C    6 s( 55.65%)p 0.76( 42.32%)d 0.04(  2.03%)
                            0.021%  H    7 s( 99.93%)p 0.00(  0.07%)
                            0.033%  H    8 s( 99.20%)p 0.01(  0.80%)
                            0.065% Cl    9 s( 19.82%)p 4.02( 79.62%)d 0.03(  0.57%)
                           98.658% Cl   10 s(  0.07%)p99.99( 99.92%)d 0.21(  0.01%)
    50. (2.00000)  97.7703%  LP ( 3)Cl  10            
                            1.080%  C    1 s(  0.00%)p 1.00( 92.77%)d 0.08(  7.23%)
                            1.065%  C    2 s(  0.00%)p 1.00( 99.77%)d 0.00(  0.23%)
                            0.077%  C    5 s(  0.00%)p 1.00( 99.40%)d 0.01(  0.60%)
                           97.770% Cl   10 s(  0.00%)p 1.00( 99.98%)d 0.00(  0.02%)
    51. (2.00000)  98.8513%  LP ( 1) O  15            
                            0.123%  C   12 s( 15.14%)p 5.56( 84.28%)d 0.04(  0.58%)
                            0.978%  C   14 s( 21.28%)p 3.70( 78.71%)d 0.00(  0.01%)
                           98.852%  O   15 s( 55.58%)p 0.80( 44.39%)d 0.00(  0.02%)
                            0.021%  O   17 s( 26.68%)p 2.60( 69.34%)d 0.15(  3.98%)
    52. (2.00000)  93.4237%  LP ( 2) O  15            
                            0.061%  C   11 s( 21.30%)p 3.61( 76.86%)d 0.09(  1.84%)
                            0.901%  C   12 s( 42.74%)p 1.26( 54.07%)d 0.07(  3.19%)
                            0.093%  C   13 s( 12.69%)p 6.73( 85.38%)d 0.15(  1.93%)
                            4.298%  C   14 s(  1.49%)p61.89( 92.36%)d 4.12(  6.15%)
                           93.424%  O   15 s(  0.05%)p99.99( 99.84%)d 2.19(  0.11%)
                            1.193%  O   17 s( 40.66%)p 1.45( 58.79%)d 0.01(  0.56%)
                            0.019%  H   18 s( 99.98%)p 0.00(  0.02%)
    53. (2.00000)  98.8513%  LP ( 1) O  16            
                            0.123%  C   11 s( 15.14%)p 5.56( 84.28%)d 0.04(  0.58%)
                            0.978%  C   13 s( 21.28%)p 3.70( 78.71%)d 0.00(  0.01%)
                           98.851%  O   16 s( 55.58%)p 0.80( 44.39%)d 0.00(  0.02%)
                            0.021%  O   17 s( 26.68%)p 2.60( 69.34%)d 0.15(  3.98%)
    54. (2.00000)  93.4239%  LP ( 2) O  16            
                            0.901%  C   11 s( 42.74%)p 1.26( 54.07%)d 0.07(  3.19%)
                            0.061%  C   12 s( 21.31%)p 3.61( 76.86%)d 0.09(  1.84%)
                            4.298%  C   13 s(  1.49%)p61.89( 92.36%)d 4.12(  6.15%)
                            0.093%  C   14 s( 12.69%)p 6.73( 85.38%)d 0.15(  1.93%)
                           93.424%  O   16 s(  0.05%)p99.99( 99.84%)d 2.19(  0.11%)
                            1.193%  O   17 s( 40.65%)p 1.45( 58.79%)d 0.01(  0.56%)
                            0.019%  H   19 s( 99.98%)p 0.00(  0.02%)
    55. (2.00000)  98.4464%  LP ( 1) O  17            
                            0.221%  C   11 s( 47.57%)p 1.06( 50.45%)d 0.04(  1.98%)
                            0.221%  C   12 s( 47.57%)p 1.06( 50.45%)d 0.04(  1.98%)
                            0.469%  C   13 s(  3.00%)p29.31( 87.82%)d 3.07(  9.19%)
                            0.469%  C   14 s(  3.00%)p29.30( 87.82%)d 3.07(  9.19%)
                            0.068%  O   15 s( 32.23%)p 2.06( 66.25%)d 0.05(  1.52%)
                            0.068%  O   16 s( 32.23%)p 2.06( 66.25%)d 0.05(  1.52%)
                           98.447%  O   17 s( 39.45%)p 1.53( 60.49%)d 0.00(  0.05%)
                            0.018%  H   18 s( 99.85%)p 0.00(  0.15%)
                            0.018%  H   19 s( 99.85%)p 0.00(  0.15%)
    56. (2.00000)  90.9294%  LP ( 2) O  17            
                            3.243%  C   13 s(  0.00%)p 1.00( 95.17%)d 0.05(  4.83%)
                            3.243%  C   14 s(  0.00%)p 1.00( 95.17%)d 0.05(  4.83%)
                            1.286%  O   15 s(  0.00%)p 1.00( 99.80%)d 0.00(  0.20%)
                            1.286%  O   16 s(  0.00%)p 1.00( 99.80%)d 0.00(  0.20%)
                           90.929%  O   17 s(  0.00%)p 1.00( 99.89%)d 0.00(  0.11%)
 Sorting of NBOs:                   28   33   44   43   42   29   34   40   41   24
 Sorting of NBOs:                   26   39   38   25   27   30   35   31   36   32
 Sorting of NBOs:                   37   18   21   20   23   45   48   12    1    7
 Sorting of NBOs:                   53   51    3   14   16    9    4   55   15   17
 Sorting of NBOs:                    6   11    5   10   19   22   56   54   52   46
 Sorting of NBOs:                   49   47   50   13    2    8  210  216  219  199
 Sorting of NBOs:                  205  206  201  190  194  220  217   79  105   75
 Sorting of NBOs:                  101  211  213  145  154   68   94  212  214  200
 Sorting of NBOs:                   67   93  203  208  202  207  152  161  109  118
 Sorting of NBOs:                  209  215  218  110  119  198  204  111  120  128
 Sorting of NBOs:                  137  116  125   84   58  129  138  113  122   57
 Sorting of NBOs:                  117   83  126   59   85  136  127   66   92  141
 Sorting of NBOs:                  132  123  114  175  166  121  112  182  173  164
 Sorting of NBOs:                  115  124   65   91  157  148  158  149  139  130
 Sorting of NBOs:                   69   95  172  163   89   63  144  135   98   72
 Sorting of NBOs:                   74  100   86   60  133  142  159  150   96   70
 Sorting of NBOs:                   62   88  147  156  146  155  131  140   73   99
 Sorting of NBOs:                  183  151  160  191  195  181   76  102   80  106
 Sorting of NBOs:                   61   87  134  143   71   97   90   64  153  162
 Sorting of NBOs:                  184   81  107   77  103  192  196  174  165   78
 Sorting of NBOs:                  104   82  108  193  197  178  169  187  185  180
 Sorting of NBOs:                  171  186  189  188  177  168  179  170  176  167
 Reordering of NBOs for storage:    28   33   44   43   42   29   34   40   41   24
 Reordering of NBOs for storage:    26   39   38   25   27   30   35   31   36   32
 Reordering of NBOs for storage:    37   18   21   20   23   45   48   12    1    7
 Reordering of NBOs for storage:    53   51    3   14   16    9    4   55   15   17
 Reordering of NBOs for storage:     6   11    5   10   19   22   56   54   52   46
 Reordering of NBOs for storage:    49   47   50   13    2    8  210  216  219  199
 Reordering of NBOs for storage:   205  206  201  220  217  211  213  212  214  200
 Reordering of NBOs for storage:   203  208  202  207  209  215  218  198  204  190
 Reordering of NBOs for storage:   194   79  105   75  101  145  154   68   94   67
 Reordering of NBOs for storage:    93  152  161  109  118  110  119  111  120  128
 Reordering of NBOs for storage:   137  116  125   84   58  129  138  113  122   57
 Reordering of NBOs for storage:   117   83  126   59   85  136  127   66   92  141
 Reordering of NBOs for storage:   132  123  114  175  166  121  112  182  173  164
 Reordering of NBOs for storage:   115  124   65   91  157  148  158  149  139  130
 Reordering of NBOs for storage:    69   95  172  163   89   63  144  135   98   72
 Reordering of NBOs for storage:    74  100   86   60  133  142  159  150   96   70
 Reordering of NBOs for storage:    62   88  147  156  146  155  131  140   73   99
 Reordering of NBOs for storage:   183  151  160  191  195  181   76  102   80  106
 Reordering of NBOs for storage:    61   87  134  143   71   97   90   64  153  162
 Reordering of NBOs for storage:   184   81  107   77  103  192  196  174  165   78
 Reordering of NBOs for storage:   104   82  108  193  197  178  169  187  185  180
 Reordering of NBOs for storage:   171  186  189  188  177  168  179  170  176  167
 Labels of output orbitals:  CR  CR  CR  CR  CR  CR  CR  CR  CR  CR  CR  CR  CR  CR  CR  CR  CR  CR  CR  CR  
 Labels of output orbitals:  CR  BD  BD  BD  BD  LP  LP  BD  BD  BD  LP  LP  BD  BD  BD  BD  BD  LP  BD  BD  
 Labels of output orbitals:  BD  BD  BD  BD  BD  BD  LP  LP  LP  LP  LP  LP  LP  BD  BD  BD  BD* BD* BD* BD* 
 Labels of output orbitals:  BD* BD* BD* BD* BD* BD* BD* BD* BD* BD* BD* BD* BD* BD* BD* BD* BD* BD* BD* RY* 
 Labels of output orbitals:  RY* RY* RY* RY* RY* RY* RY* RY* RY* RY* RY* RY* RY* RY* RY* RY* RY* RY* RY* RY* 
 Labels of output orbitals:  RY* RY* RY* RY* RY* RY* RY* RY* RY* RY* RY* RY* RY* RY* RY* RY* RY* RY* RY* RY* 
 Labels of output orbitals:  RY* RY* RY* RY* RY* RY* RY* RY* RY* RY* RY* RY* RY* RY* RY* RY* RY* RY* RY* RY* 
 Labels of output orbitals:  RY* RY* RY* RY* RY* RY* RY* RY* RY* RY* RY* RY* RY* RY* RY* RY* RY* RY* RY* RY* 
 Labels of output orbitals:  RY* RY* RY* RY* RY* RY* RY* RY* RY* RY* RY* RY* RY* RY* RY* RY* RY* RY* RY* RY* 
 Labels of output orbitals:  RY* RY* RY* RY* RY* RY* RY* RY* RY* RY* RY* RY* RY* RY* RY* RY* RY* RY* RY* RY* 
 Labels of output orbitals:  RY* RY* RY* RY* RY* RY* RY* RY* RY* RY* RY* RY* RY* RY* RY* RY* RY* RY* RY* RY* 
 GSVD:  LWork=       -3584 too small for GESVD, short by       16520 words or       16520 for optimal perf.
 GSVD:  LWork=      -28208 too small for GESVD, short by      136940 words or      136940 for optimal perf.
 Leave Link  607 at Thu Feb  9 09:17:22 2023, MaxMem=  1073741824 cpu:               9.3 elap:               1.2
 (Enter /public/home/zyli/senxu/soft/g16/l9999.exe)

 This type of calculation cannot be archived.


 THESE ARE THE TIMES THAT TRY MENS SOULS.
 THE SUMMER SOLDIER AND THE SUNSHINE PATRIOT WILL IN THIS CRISIS,
 SHRINK FROM THE SERVICE OF HIS COUNTRY.  BUT HE THAT STANDS NOW,
 DESERVES THE LOVE AND THANKS OF MAN AND WOMAN.
 TYRANNY, LIKE HELL, IS NOT EASILY CONQUERED,
 YET WE HAVE THIS CONSOLATION WITH US,
 THAT THE HARDER THE CONFLICT, THE MORE GLORIOUS THE TRIUMPH.
 WHAT WE OBTAIN TOO CHEAP, WE ESTEEM TOO LIGHTLY, 
 'TIS DEARNESS ONLY THAT GIVES EVERYTHING ITS VALUE.

                                              -- TOM PAINE
 Job cpu time:       0 days  0 hours  0 minutes 17.2 seconds.
 Elapsed time:       0 days  0 hours  0 minutes  2.2 seconds.
 File lengths (MBytes):  RWF=     10 Int=      0 D2E=      0 Chk=     67 Scr=      1
 Normal termination of Gaussian 16 at Thu Feb  9 09:17:23 2023.
