[Molden Format]
[N_Atoms]
                    2
[Atoms] (AU)
N1          1      7           0.00000000      0.00000000      0.00000000
N2          2      7           0.00000000      0.00000000     11.33835675
[5D]
[7F]
[Charge] (Mulliken)
   0.0000000000000000     
   0.0000000000000000     
[GTO] (AU)
   1
   s  10
  1.142000000E+04  5.229996559E-04
  1.712000000E+03  4.044997339E-03
  3.893000000E+02  2.077498633E-02
  1.100000000E+02  8.072694689E-02
  3.557000000E+01  2.330738467E-01
  1.254000000E+01  4.335007148E-01
  4.644000000E+00  3.474717714E-01
  1.293000000E+00  4.126197285E-02
  5.118000000E-01 -8.507994403E-03
  1.787000000E-01  2.383998432E-03
   s  10
  1.142000000E+04 -1.149999544E-04
  1.712000000E+03 -8.949996452E-04
  3.893000000E+02 -4.623998167E-03
  1.100000000E+02 -1.852799265E-02
  3.557000000E+01 -5.733897727E-02
  1.254000000E+01 -1.320759476E-01
  4.644000000E+00 -1.725099316E-01
  1.293000000E+00  1.518139398E-01
  5.118000000E-01  5.999437621E-01
  1.787000000E-01  3.874618464E-01
   s   1
  1.293000000E+00  1.000000000E+00
   s   1
  1.787000000E-01  1.000000000E+00
   p   5
  2.663000000E+01  1.467000345E-02
  5.948000000E+00  9.176402155E-02
  1.742000000E+00  2.986830701E-01
  5.550000000E-01  4.984871171E-01
  1.725000000E-01  3.370230791E-01
   p   1
  5.550000000E-01  1.000000000E+00
   p   1
  1.725000000E-01  1.000000000E+00
   d   1
  1.654000000E+00  1.000000000E+00
   d   1
  4.690000000E-01  1.000000000E+00
   f   1
  1.093000000E+00  1.000000000E+00
 
   2
   s  10
  1.142000000E+04  5.229996559E-04
  1.712000000E+03  4.044997339E-03
  3.893000000E+02  2.077498633E-02
  1.100000000E+02  8.072694689E-02
  3.557000000E+01  2.330738467E-01
  1.254000000E+01  4.335007148E-01
  4.644000000E+00  3.474717714E-01
  1.293000000E+00  4.126197285E-02
  5.118000000E-01 -8.507994403E-03
  1.787000000E-01  2.383998432E-03
   s  10
  1.142000000E+04 -1.149999544E-04
  1.712000000E+03 -8.949996452E-04
  3.893000000E+02 -4.623998167E-03
  1.100000000E+02 -1.852799265E-02
  3.557000000E+01 -5.733897727E-02
  1.254000000E+01 -1.320759476E-01
  4.644000000E+00 -1.725099316E-01
  1.293000000E+00  1.518139398E-01
  5.118000000E-01  5.999437621E-01
  1.787000000E-01  3.874618464E-01
   s   1
  1.293000000E+00  1.000000000E+00
   s   1
  1.787000000E-01  1.000000000E+00
   p   5
  2.663000000E+01  1.467000345E-02
  5.948000000E+00  9.176402155E-02
  1.742000000E+00  2.986830701E-01
  5.550000000E-01  4.984871171E-01
  1.725000000E-01  3.370230791E-01
   p   1
  5.550000000E-01  1.000000000E+00
   p   1
  1.725000000E-01  1.000000000E+00
   d   1
  1.654000000E+00  1.000000000E+00
   d   1
  4.690000000E-01  1.000000000E+00
   f   1
  1.093000000E+00  1.000000000E+00
 
[MO]
Sym=     1a  
Ene=   -15.6340
Spin= Alpha
Occup=    2.00000
   1         0.70768591
   2         0.00342681
   3        -0.00165281
   4         0.00194493
   5        -0.00000000
   6         0.00000000
   7         0.00000000
   8         0.00000000
   9         0.00000000
  10        -0.00000000
  11         0.00000000
  12        -0.00000000
  13        -0.00000000
  14         0.00000000
  15        -0.00000000
  16         0.00000000
  17        -0.00000000
  18        -0.00000000
  19        -0.00000000
  20         0.00000000
  21        -0.00000000
  22         0.00000000
  23         0.00000000
  24         0.00000000
  25         0.00000000
  26        -0.00000000
  27         0.00000000
  28         0.00000000
  29        -0.00000000
  30        -0.00000000
  31         0.70768733
  32         0.00342682
  33        -0.00165281
  34         0.00194493
  35        -0.00000000
  36         0.00000000
  37        -0.00000000
  38        -0.00000000
  39         0.00000000
  40         0.00000000
  41        -0.00000000
  42        -0.00000000
  43         0.00000000
  44        -0.00000000
  45         0.00000000
  46         0.00000000
  47         0.00000000
  48         0.00000000
  49        -0.00000000
  50        -0.00000000
  51         0.00000000
  52        -0.00000000
  53        -0.00000000
  54        -0.00000000
  55        -0.00000000
  56        -0.00000000
  57        -0.00000000
  58         0.00000000
  59         0.00000000
  60        -0.00000000
Sym=     2a  
Ene=   -15.6340
Spin= Alpha
Occup=    2.00000
   1        -0.70768733
   2        -0.00342682
   3         0.00165281
   4        -0.00194493
   5         0.00000000
   6        -0.00000000
   7         0.00000000
   8        -0.00000000
   9         0.00000000
  10        -0.00000000
  11        -0.00000000
  12        -0.00000000
  13        -0.00000000
  14         0.00000000
  15         0.00000000
  16        -0.00000000
  17        -0.00000000
  18         0.00000000
  19        -0.00000000
  20        -0.00000000
  21         0.00000000
  22         0.00000000
  23        -0.00000000
  24         0.00000000
  25         0.00000000
  26        -0.00000000
  27         0.00000000
  28         0.00000000
  29        -0.00000000
  30        -0.00000000
  31         0.70768591
  32         0.00342681
  33        -0.00165281
  34         0.00194493
  35         0.00000000
  36         0.00000000
  37         0.00000000
  38        -0.00000000
  39         0.00000000
  40        -0.00000000
  41        -0.00000000
  42        -0.00000000
  43        -0.00000000
  44        -0.00000000
  45        -0.00000000
  46        -0.00000000
  47         0.00000000
  48         0.00000000
  49        -0.00000000
  50         0.00000000
  51        -0.00000000
  52        -0.00000000
  53         0.00000000
  54        -0.00000000
  55        -0.00000000
  56        -0.00000000
  57        -0.00000000
  58        -0.00000000
  59         0.00000000
  60        -0.00000000
Sym=     3a  
Ene=    -0.9453
Spin= Alpha
Occup=    2.00000
   1        -0.00858410
   2         0.69877022
   3         0.00702363
   4         0.00403560
   5         0.00000000
   6         0.00000000
   7         0.00000822
   8        -0.00000000
   9        -0.00000000
  10        -0.00000014
  11        -0.00000000
  12        -0.00000000
  13        -0.00000038
  14        -0.00000000
  15        -0.00000000
  16        -0.00000000
  17        -0.00000000
  18        -0.00000000
  19        -0.00000000
  20         0.00000000
  21         0.00000000
  22        -0.00000000
  23         0.00000000
  24        -0.00000000
  25        -0.00000000
  26         0.00000000
  27        -0.00000000
  28        -0.00000000
  29         0.00000000
  30         0.00000000
  31        -0.00858410
  32         0.69877022
  33         0.00702363
  34         0.00403560
  35        -0.00000000
  36        -0.00000000
  37        -0.00000822
  38         0.00000000
  39        -0.00000000
  40         0.00000014
  41         0.00000000
  42         0.00000000
  43         0.00000038
  44        -0.00000000
  45         0.00000000
  46         0.00000000
  47         0.00000000
  48         0.00000000
  49        -0.00000000
  50        -0.00000000
  51        -0.00000000
  52        -0.00000000
  53        -0.00000000
  54         0.00000000
  55         0.00000000
  56        -0.00000000
  57         0.00000000
  58         0.00000000
  59         0.00000000
  60        -0.00000000
Sym=     4a  
Ene=    -0.9453
Spin= Alpha
Occup=    2.00000
   1         0.00858407
   2        -0.69877131
   3        -0.00702364
   4        -0.00403561
   5         0.00000000
   6         0.00000000
   7         0.00000822
   8        -0.00000000
   9        -0.00000000
  10        -0.00000014
  11        -0.00000000
  12        -0.00000000
  13        -0.00000038
  14        -0.00000000
  15        -0.00000000
  16         0.00000000
  17        -0.00000000
  18        -0.00000000
  19         0.00000000
  20        -0.00000000
  21         0.00000000
  22         0.00000000
  23         0.00000000
  24         0.00000000
  25        -0.00000000
  26         0.00000000
  27        -0.00000000
  28        -0.00000000
  29         0.00000000
  30         0.00000000
  31        -0.00858407
  32         0.69877131
  33         0.00702364
  34         0.00403561
  35         0.00000000
  36         0.00000000
  37         0.00000822
  38         0.00000000
  39        -0.00000000
  40        -0.00000014
  41         0.00000000
  42         0.00000000
  43        -0.00000038
  44        -0.00000000
  45        -0.00000000
  46        -0.00000000
  47         0.00000000
  48         0.00000000
  49        -0.00000000
  50         0.00000000
  51         0.00000000
  52        -0.00000000
  53        -0.00000000
  54         0.00000000
  55         0.00000000
  56        -0.00000000
  57         0.00000000
  58        -0.00000000
  59         0.00000000
  60        -0.00000000
Sym=     5a  
Ene=    -0.5706
Spin= Alpha
Occup=    1.00000
   1        -0.00000006
   2         0.00001278
   3         0.00000013
   4         0.00000007
   5        -0.00000000
   6         0.00000000
   7        -0.74507509
   8         0.00000000
   9        -0.00000000
  10         0.01301081
  11         0.00000000
  12        -0.00000000
  13         0.03468126
  14        -0.00000000
  15         0.00000000
  16         0.00000000
  17        -0.00000000
  18         0.00000000
  19         0.00000000
  20        -0.00000000
  21        -0.00000000
  22         0.00000000
  23         0.00000000
  24         0.00000000
  25         0.00000000
  26        -0.00000000
  27         0.00000000
  28         0.00000000
  29         0.00000000
  30         0.00000000
  31        -0.00000006
  32         0.00001278
  33         0.00000013
  34         0.00000007
  35         0.00000000
  36         0.00000000
  37         0.74507509
  38         0.00000000
  39        -0.00000000
  40        -0.01301081
  41         0.00000000
  42        -0.00000000
  43        -0.03468126
  44        -0.00000000
  45         0.00000000
  46         0.00000000
  47         0.00000000
  48         0.00000000
  49         0.00000000
  50        -0.00000000
  51         0.00000000
  52        -0.00000000
  53        -0.00000000
  54         0.00000000
  55        -0.00000000
  56         0.00000000
  57         0.00000000
  58        -0.00000000
  59         0.00000000
  60         0.00000000
Sym=     6a  
Ene=    -0.5706
Spin= Alpha
Occup=    1.00000
   1        -0.00000000
   2        -0.00000000
   3         0.00000000
   4         0.00000000
   5         0.74508597
   6         0.00000959
   7        -0.00000000
   8        -0.01301100
   9        -0.00000017
  10         0.00000000
  11        -0.03468177
  12        -0.00000045
  13         0.00000000
  14         0.00000000
  15         0.00000000
  16        -0.00000000
  17         0.00000000
  18        -0.00000000
  19        -0.00000000
  20         0.00000000
  21        -0.00000000
  22         0.00000000
  23         0.00000000
  24        -0.00000000
  25         0.00000000
  26         0.00000000
  27         0.00000000
  28         0.00000000
  29        -0.00000000
  30        -0.00000000
  31        -0.00000000
  32        -0.00000000
  33         0.00000000
  34         0.00000000
  35         0.74508597
  36         0.00000959
  37        -0.00000000
  38        -0.01301100
  39        -0.00000017
  40         0.00000000
  41        -0.03468177
  42        -0.00000045
  43         0.00000000
  44         0.00000000
  45        -0.00000000
  46         0.00000000
  47         0.00000000
  48         0.00000000
  49        -0.00000000
  50         0.00000000
  51         0.00000000
  52        -0.00000000
  53        -0.00000000
  54         0.00000000
  55         0.00000000
  56        -0.00000000
  57        -0.00000000
  58        -0.00000000
  59         0.00000000
  60        -0.00000000
Sym=     7a  
Ene=    -0.5706
Spin= Alpha
Occup=    1.00000
   1        -0.00000000
   2         0.00000000
   3         0.00000000
   4         0.00000000
   5        -0.00000959
   6         0.74508597
   7         0.00000000
   8         0.00000017
   9        -0.01301100
  10        -0.00000000
  11         0.00000045
  12        -0.03468177
  13        -0.00000000
  14         0.00000000
  15        -0.00000000
  16        -0.00000000
  17        -0.00000000
  18        -0.00000000
  19        -0.00000000
  20        -0.00000000
  21         0.00000000
  22         0.00000000
  23        -0.00000000
  24         0.00000000
  25         0.00000000
  26         0.00000000
  27         0.00000000
  28         0.00000000
  29        -0.00000000
  30         0.00000000
  31         0.00000000
  32         0.00000000
  33        -0.00000000
  34        -0.00000000
  35        -0.00000959
  36         0.74508597
  37         0.00000000
  38         0.00000017
  39        -0.01301100
  40        -0.00000000
  41         0.00000045
  42        -0.03468177
  43        -0.00000000
  44        -0.00000000
  45         0.00000000
  46        -0.00000000
  47         0.00000000
  48        -0.00000000
  49         0.00000000
  50         0.00000000
  51        -0.00000000
  52         0.00000000
  53         0.00000000
  54        -0.00000000
  55         0.00000000
  56        -0.00000000
  57        -0.00000000
  58         0.00000000
  59         0.00000000
  60         0.00000000
Sym=     8a  
Ene=    -0.5706
Spin= Alpha
Occup=    1.00000
   1        -0.00000000
   2        -0.00000000
   3         0.00000000
   4         0.00000000
   5         0.00000000
   6        -0.74508704
   7         0.00000000
   8        -0.00000000
   9         0.01301102
  10         0.00000000
  11        -0.00000000
  12         0.03468182
  13        -0.00000000
  14         0.00000000
  15         0.00000000
  16        -0.00000000
  17         0.00000000
  18         0.00000000
  19        -0.00000000
  20         0.00000000
  21         0.00000000
  22        -0.00000000
  23        -0.00000000
  24        -0.00000000
  25         0.00000000
  26        -0.00000000
  27         0.00000000
  28         0.00000000
  29        -0.00000000
  30         0.00000000
  31         0.00000000
  32         0.00000000
  33        -0.00000000
  34        -0.00000000
  35        -0.00000000
  36         0.74508704
  37         0.00000000
  38         0.00000000
  39        -0.01301102
  40        -0.00000000
  41         0.00000000
  42        -0.03468182
  43        -0.00000000
  44        -0.00000000
  45        -0.00000000
  46        -0.00000000
  47        -0.00000000
  48        -0.00000000
  49         0.00000000
  50        -0.00000000
  51        -0.00000000
  52        -0.00000000
  53         0.00000000
  54        -0.00000000
  55        -0.00000000
  56        -0.00000000
  57        -0.00000000
  58         0.00000000
  59         0.00000000
  60         0.00000000
Sym=     9a  
Ene=    -0.5706
Spin= Alpha
Occup=    1.00000
   1        -0.00000000
   2        -0.00000000
   3         0.00000000
   4         0.00000000
   5        -0.74508704
   6        -0.00000000
   7        -0.00000000
   8         0.01301102
   9         0.00000000
  10         0.00000000
  11         0.03468182
  12         0.00000000
  13         0.00000000
  14        -0.00000000
  15        -0.00000000
  16         0.00000000
  17         0.00000000
  18        -0.00000000
  19        -0.00000000
  20        -0.00000000
  21         0.00000000
  22         0.00000000
  23         0.00000000
  24         0.00000000
  25        -0.00000000
  26        -0.00000000
  27        -0.00000000
  28        -0.00000000
  29         0.00000000
  30         0.00000000
  31        -0.00000000
  32        -0.00000000
  33         0.00000000
  34         0.00000000
  35         0.74508705
  36         0.00000000
  37        -0.00000000
  38        -0.01301102
  39        -0.00000000
  40         0.00000000
  41        -0.03468182
  42        -0.00000000
  43         0.00000000
  44         0.00000000
  45         0.00000000
  46        -0.00000000
  47         0.00000000
  48         0.00000000
  49         0.00000000
  50         0.00000000
  51         0.00000000
  52        -0.00000000
  53        -0.00000000
  54         0.00000000
  55         0.00000000
  56         0.00000000
  57        -0.00000000
  58         0.00000000
  59         0.00000000
  60         0.00000000
Sym=    10a  
Ene=    -0.5706
Spin= Alpha
Occup=    1.00000
   1        -0.00000006
   2         0.00001278
   3         0.00000013
   4         0.00000007
   5         0.00000000
   6        -0.00000000
   7         0.74509793
   8        -0.00000000
   9         0.00000000
  10        -0.01301121
  11        -0.00000000
  12         0.00000000
  13        -0.03468232
  14         0.00000000
  15        -0.00000000
  16         0.00000000
  17         0.00000000
  18         0.00000000
  19        -0.00000000
  20        -0.00000000
  21        -0.00000000
  22        -0.00000000
  23        -0.00000000
  24        -0.00000000
  25        -0.00000000
  26         0.00000000
  27        -0.00000000
  28        -0.00000000
  29        -0.00000000
  30        -0.00000000
  31         0.00000006
  32        -0.00001278
  33        -0.00000013
  34        -0.00000007
  35         0.00000000
  36        -0.00000000
  37         0.74509793
  38        -0.00000000
  39         0.00000000
  40        -0.01301121
  41        -0.00000000
  42         0.00000000
  43        -0.03468232
  44         0.00000000
  45         0.00000000
  46        -0.00000000
  47         0.00000000
  48         0.00000000
  49        -0.00000000
  50         0.00000000
  51         0.00000000
  52         0.00000000
  53        -0.00000000
  54         0.00000000
  55         0.00000000
  56         0.00000000
  57         0.00000000
  58         0.00000000
  59         0.00000000
  60        -0.00000000
Sym=    11a  
Ene=     4.0079
Spin= Alpha
Occup=    0.00000
   1         0.00055822
   2         0.00202596
   3        -0.00045857
   4        -0.00188519
   5         0.00000000
   6         0.00000000
   7        -0.09990642
   8        -0.00000000
   9        -0.00000000
  10         0.81050728
  11         0.00000000
  12         0.00000000
  13        -0.91705278
  14         0.00000598
  15         0.00000000
  16        -0.00000000
  17         0.00000000
  18         0.00000000
  19        -0.00003564
  20        -0.00000000
  21         0.00000000
  22        -0.00000000
  23        -0.00000000
  24        -0.00000021
  25        -0.00000000
  26         0.00000000
  27        -0.00000000
  28        -0.00000000
  29        -0.00000000
  30        -0.00000000
  31         0.00055822
  32         0.00202596
  33        -0.00045857
  34        -0.00188519
  35         0.00000000
  36         0.00000000
  37         0.09990642
  38        -0.00000000
  39        -0.00000000
  40        -0.81050728
  41         0.00000000
  42         0.00000000
  43         0.91705278
  44         0.00000598
  45         0.00000000
  46        -0.00000000
  47        -0.00000000
  48        -0.00000000
  49        -0.00003564
  50        -0.00000000
  51        -0.00000000
  52        -0.00000000
  53         0.00000000
  54         0.00000021
  55        -0.00000000
  56        -0.00000000
  57         0.00000000
  58         0.00000000
  59        -0.00000000
  60        -0.00000000
Sym=    12a  
Ene=     4.0090
Spin= Alpha
Occup=    0.00000
   1        -0.00000000
   2        -0.00000000
   3         0.00000000
   4         0.00000000
   5         0.00006141
   6         0.09981385
   7        -0.00000000
   8        -0.00049868
   9        -0.81054729
  10         0.00000000
  11         0.00056439
  12         0.91735535
  13        -0.00000000
  14        -0.00000000
  15        -0.00000000
  16        -0.00000037
  17         0.00000000
  18        -0.00000000
  19         0.00000000
  20         0.00000000
  21         0.00000218
  22         0.00000000
  23         0.00000000
  24        -0.00000000
  25         0.00000000
  26         0.00000002
  27        -0.00000000
  28        -0.00000000
  29         0.00000000
  30        -0.00000000
  31         0.00000000
  32         0.00000000
  33         0.00000000
  34        -0.00000000
  35         0.00006141
  36         0.09981385
  37        -0.00000000
  38        -0.00049868
  39        -0.81054729
  40         0.00000000
  41         0.00056439
  42         0.91735535
  43        -0.00000000
  44         0.00000000
  45         0.00000000
  46         0.00000037
  47         0.00000000
  48         0.00000000
  49        -0.00000000
  50        -0.00000000
  51        -0.00000218
  52        -0.00000000
  53        -0.00000000
  54        -0.00000000
  55         0.00000000
  56         0.00000002
  57         0.00000000
  58        -0.00000000
  59         0.00000000
  60        -0.00000000
Sym=    13a  
Ene=     4.0090
Spin= Alpha
Occup=    0.00000
   1         0.00000000
   2         0.00000000
   3        -0.00000000
   4        -0.00000000
   5         0.09981385
   6        -0.00006141
   7        -0.00000000
   8        -0.81054729
   9         0.00049868
  10         0.00000000
  11         0.91735535
  12        -0.00056439
  13        -0.00000000
  14        -0.00000000
  15        -0.00000037
  16         0.00000000
  17        -0.00000000
  18         0.00000000
  19         0.00000000
  20         0.00000218
  21        -0.00000000
  22        -0.00000000
  23        -0.00000000
  24         0.00000000
  25         0.00000002
  26        -0.00000000
  27        -0.00000000
  28        -0.00000000
  29         0.00000000
  30         0.00000000
  31         0.00000000
  32         0.00000000
  33        -0.00000000
  34        -0.00000000
  35         0.09981385
  36        -0.00006141
  37        -0.00000000
  38        -0.81054729
  39         0.00049868
  40         0.00000000
  41         0.91735535
  42        -0.00056439
  43        -0.00000000
  44         0.00000000
  45         0.00000037
  46        -0.00000000
  47        -0.00000000
  48         0.00000000
  49        -0.00000000
  50        -0.00000218
  51         0.00000000
  52        -0.00000000
  53         0.00000000
  54         0.00000000
  55         0.00000002
  56        -0.00000000
  57         0.00000000
  58         0.00000000
  59         0.00000000
  60         0.00000000
Sym=    14a  
Ene=     4.0091
Spin= Alpha
Occup=    0.00000
   1         0.00000000
   2         0.00000000
   3        -0.00000000
   4        -0.00000000
   5         0.00010558
   6        -0.09980357
   7        -0.00000000
   8        -0.00085743
   9         0.81055005
  10         0.00000000
  11         0.00097045
  12        -0.91738530
  13        -0.00000000
  14         0.00000000
  15         0.00000000
  16        -0.00000037
  17         0.00000000
  18        -0.00000000
  19        -0.00000000
  20        -0.00000000
  21         0.00000218
  22        -0.00000000
  23         0.00000000
  24        -0.00000000
  25        -0.00000000
  26         0.00000002
  27        -0.00000000
  28        -0.00000000
  29         0.00000000
  30         0.00000000
  31         0.00000000
  32         0.00000000
  33        -0.00000000
  34        -0.00000000
  35        -0.00010558
  36         0.09980357
  37        -0.00000000
  38         0.00085743
  39        -0.81055005
  40         0.00000000
  41        -0.00097045
  42         0.91738530
  43        -0.00000000
  44        -0.00000000
  45         0.00000000
  46        -0.00000037
  47        -0.00000000
  48         0.00000000
  49         0.00000000
  50        -0.00000000
  51         0.00000218
  52         0.00000000
  53        -0.00000000
  54        -0.00000000
  55         0.00000000
  56        -0.00000002
  57         0.00000000
  58        -0.00000000
  59        -0.00000000
  60        -0.00000000
Sym=    15a  
Ene=     4.0091
Spin= Alpha
Occup=    0.00000
   1         0.00000000
   2         0.00000000
   3        -0.00000000
   4        -0.00000000
   5        -0.09980357
   6        -0.00010558
   7        -0.00000000
   8         0.81055005
   9         0.00085743
  10         0.00000000
  11        -0.91738530
  12        -0.00097045
  13        -0.00000000
  14        -0.00000000
  15        -0.00000037
  16        -0.00000000
  17         0.00000000
  18        -0.00000000
  19         0.00000000
  20         0.00000218
  21         0.00000000
  22        -0.00000000
  23         0.00000000
  24        -0.00000000
  25         0.00000002
  26         0.00000000
  27         0.00000000
  28         0.00000000
  29        -0.00000000
  30        -0.00000000
  31         0.00000000
  32         0.00000000
  33        -0.00000000
  34        -0.00000000
  35         0.09980357
  36         0.00010558
  37        -0.00000000
  38        -0.81055005
  39        -0.00085743
  40         0.00000000
  41         0.91738530
  42         0.00097045
  43        -0.00000000
  44         0.00000000
  45        -0.00000037
  46        -0.00000000
  47        -0.00000000
  48         0.00000000
  49        -0.00000000
  50         0.00000218
  51         0.00000000
  52         0.00000000
  53         0.00000000
  54        -0.00000000
  55        -0.00000002
  56        -0.00000000
  57         0.00000000
  58        -0.00000000
  59         0.00000000
  60        -0.00000000
Sym=    16a  
Ene=     4.0102
Spin= Alpha
Occup=    0.00000
   1         0.00056208
   2         0.00204007
   3        -0.00046163
   4        -0.00189859
   5        -0.00000000
   6        -0.00000000
   7         0.09971078
   8         0.00000000
   9         0.00000000
  10        -0.81058987
  11        -0.00000000
  12        -0.00000000
  13         0.91768795
  14         0.00000600
  15        -0.00000000
  16         0.00000000
  17        -0.00000000
  18        -0.00000000
  19        -0.00003581
  20         0.00000000
  21        -0.00000000
  22         0.00000000
  23         0.00000000
  24        -0.00000021
  25         0.00000000
  26         0.00000000
  27         0.00000000
  28        -0.00000000
  29         0.00000000
  30         0.00000000
  31        -0.00056208
  32        -0.00204007
  33         0.00046163
  34         0.00189859
  35         0.00000000
  36         0.00000000
  37         0.09971078
  38        -0.00000000
  39        -0.00000000
  40        -0.81058987
  41         0.00000000
  42         0.00000000
  43         0.91768795
  44        -0.00000600
  45         0.00000000
  46         0.00000000
  47         0.00000000
  48        -0.00000000
  49         0.00003581
  50        -0.00000000
  51         0.00000000
  52        -0.00000000
  53         0.00000000
  54        -0.00000021
  55         0.00000000
  56         0.00000000
  57        -0.00000000
  58        -0.00000000
  59        -0.00000000
  60         0.00000000
Sym=    17a  
Ene=     4.3957
Spin= Alpha
Occup=    0.00000
   1        -0.63437220
   2        -2.32653717
   3         0.50085219
   4         2.21262547
   5        -0.00000000
   6         0.00000000
   7        -0.00005354
   8         0.00000000
   9         0.00000000
  10         0.00073867
  11        -0.00000000
  12        -0.00000000
  13        -0.00092023
  14        -0.00000271
  15        -0.00000000
  16         0.00000000
  17         0.00000000
  18         0.00000000
  19         0.00001971
  20         0.00000000
  21        -0.00000000
  22        -0.00000000
  23        -0.00000000
  24         0.00000003
  25        -0.00000000
  26        -0.00000000
  27         0.00000000
  28        -0.00000000
  29        -0.00000000
  30        -0.00000000
  31        -0.63437220
  32        -2.32653717
  33         0.50085219
  34         2.21262547
  35         0.00000000
  36         0.00000000
  37         0.00005354
  38        -0.00000000
  39        -0.00000000
  40        -0.00073867
  41         0.00000000
  42         0.00000000
  43         0.00092023
  44        -0.00000271
  45        -0.00000000
  46        -0.00000000
  47         0.00000000
  48        -0.00000000
  49         0.00001971
  50         0.00000000
  51         0.00000000
  52        -0.00000000
  53         0.00000000
  54        -0.00000003
  55         0.00000000
  56         0.00000000
  57        -0.00000000
  58        -0.00000000
  59         0.00000000
  60         0.00000000
Sym=    18a  
Ene=     4.3959
Spin= Alpha
Occup=    0.00000
   1        -0.63437953
   2        -2.32657753
   3         0.50084815
   4         2.21268494
   5         0.00000000
   6        -0.00000000
   7         0.00005388
   8        -0.00000000
   9         0.00000000
  10        -0.00074362
  11         0.00000000
  12        -0.00000000
  13         0.00092647
  14         0.00000274
  15         0.00000000
  16         0.00000000
  17         0.00000000
  18        -0.00000000
  19        -0.00001997
  20        -0.00000000
  21        -0.00000000
  22        -0.00000000
  23         0.00000000
  24        -0.00000003
  25        -0.00000000
  26        -0.00000000
  27         0.00000000
  28        -0.00000000
  29         0.00000000
  30         0.00000000
  31         0.63437953
  32         2.32657753
  33        -0.50084815
  34        -2.21268494
  35        -0.00000000
  36        -0.00000000
  37         0.00005388
  38         0.00000000
  39         0.00000000
  40        -0.00074362
  41        -0.00000000
  42        -0.00000000
  43         0.00092647
  44        -0.00000274
  45         0.00000000
  46        -0.00000000
  47        -0.00000000
  48         0.00000000
  49         0.00001997
  50        -0.00000000
  51         0.00000000
  52         0.00000000
  53        -0.00000000
  54        -0.00000003
  55        -0.00000000
  56        -0.00000000
  57         0.00000000
  58         0.00000000
  59        -0.00000000
  60        -0.00000000
Sym=    19a  
Ene=     4.5800
Spin= Alpha
Occup=    0.00000
   1         0.00000000
   2         0.00000000
   3        -0.00000000
   4        -0.00000000
   5         0.00000011
   6         0.00000000
   7        -0.00000000
   8        -0.00000239