   This run of MOLCAS is using the pymolcas driver

                             OPE
                             OPE          NMOL  CASOP  ENMOLC A   SO
                 OPE        NMOLC        AS  OP EN  MO LC     AS  OP
                OPENM       OL CA        SO  PE NM  OL CA     SOP EN
                OP EN      MO   LC       AS  OP ENMOL  CASO   PENMOL
                OP  EN     MO   LC       AS  OP EN     MO     LC ASO
               OP   E  NMOL  C  AS       OP  EN MO     LC     AS  OP
               OP  E   NMO   LC AS        OPEN  MO     LCASOP EN   M
               O  PEN   MO  LCA  SO
            OPE   NMO   L   CAS    OP
        OPENMOL  CASOP     ENMOL   CASOPE
     OPENMOLCA   SOPENMOLCASOPEN   MOLCASOPE
    OPENMOLCAS   OP           EN   MOL    CAS
    OPENMOLCAS       OP  ENM        O     LCA
    OPENMOLCAS    OPEN  MOLCASO     P  E  NMO
    OPENMOLCAS     OP               E  N  MOL
    OPENMOLCA   SO           PENM   O  L  CAS    OPEN    MO    LCAS
    OPENMOLCA   SOP           ENM   O  L  CAS   OP  EN  MOLC  AS   O
    OPENMOLCA   SOPE           NM      O  LCA   S      OP  EN MO
    OPENMOLC                AS         O  PEN   M      OL  CA  SOPE
    OPENMO        LCASOPE  NMOL        C  ASO   P      ENMOLC     AS
    OPE     NMO      LCA  SO     P     E   NM   OL  CA SO  PE N   MO
          OPENMOLCA            SOPE   NMO        LCAS  O    P  ENMO
     OPENMOLCASOPENMOLCASOPENMOLCASOPENMOLCA
        OPENMOLCASOPENMOLCASOPENMOLCASOPE
            OPENMOLCASOPENMOLCASOPENM
               OPENMOLCASOPENMOLCA        version: o822a959167d23c ?
                   OPENMOLCASO
                       OPE                tag:

 OpenMolcas is free software; you can redistribute it and/or modify it
 under the terms of the GNU Lesser General Public License version 2.1.
 OpenMolcas is distributed in the hope that it will be useful, but it
 is provided "as is" and without any express or implied warranties.
 For more details see the full text of the license in the file
 LICENSE or in <http://www.gnu.org/licenses/>.

                 Copyright (C) The OpenMolcas Authors
           For the author list and the recommended citation,
                   consult the file CONTRIBUTORS.md

           *************************************************
           * pymolcas version py2.28                       *
           *   build c4a6d18ded8cb6cad61d2372a9abd97c      *
           *   (after the EMIL interpreter by V. Veryazov) *
           *************************************************

configuration info
------------------
Host name: mgt (Linux)
C Compiler ID: GNU
C flags: -std=gnu99
Fortran Compiler ID: GNU
Fortran flags: -fno-aggressive-loop-optimizations -cpp -fdefault-integer-8 -fmax-stack-var-size=1048576
Definitions: _MOLCAS_;_I8_;_LINUX_
Parallel: OFF (GA=OFF)


   -------------------------------------------------------------------------------------------------------
  |
  |           Project: n2
  |    Submitted from: /public/home/xzzeng/work/HQC/N2/cc-pvtz/NO/PES/entropy/6.0/results/work_dir/n2/dmrg
  |      Scratch area: /public/home/xzzeng/work/HQC/N2/cc-pvtz/NO/PES/entropy/6.0/results/scratch
  |   Save outputs to: /public/home/xzzeng/work/HQC/N2/cc-pvtz/NO/PES/entropy/6.0/results/work_dir/n2/dmrg
  |            Molcas: /public/home/xzzeng/soft/OpenMolcas/build
  |
  | Scratch area is NOT empty
  |
  |    MOLCAS_DRIVER = /public/home/xzzeng/soft/OpenMolcas/build/pymolcas
  |    MOLCAS_NPROCS = 1
  |    MOLCAS_SOURCE = /public/home/xzzeng/soft/OpenMolcas
  | MOLCAS_STRUCTURE = 0
  |
   -------------------------------------------------------------------------------------------------------

++ ---------   Input file   ---------

&DMRGSCF
ActiveSpaceOptimizer = QCMaquis
DMRGSettings
  nsweeps = 5
  max_bond_dimension = 300
EndDMRGSettings
OOptimizationSettings
  SPIN    = 1
  NACTEL  = 10
  FILEORB = /public/home/xzzeng/work/HQC/N2/cc-pvtz/NO/PES/entropy/6.0/results/work_dir/n2/dmrg/n2.scf.h5_sel
  TYPEINDEX
  CIONLY
EndOOptimizationSettings

-- ----------------------------------

*** symbolic link created: INPORB -> n2.ScfOrb
--- Start Module: dmrgscf at Tue Apr  9 00:43:50 2024 ---

()()()()()()()()()()()()()()()()()()()()()()()()()()()()()()()()()()()()()()()()()()()()()()()()()()

                                              &DMRGSCF

                                   only a single process is used
                       available to each process: 12 GB of memory, 1 thread?
                                             pid: 63943
()()()()()()()()()()()()()()()()()()()()()()()()()()()()()()()()()()()()()()()()()()()()()()()()()()


      DMRGSCF: active space solver is set to qcmaquis
      -------                                --------


      Header of the ONEINT file:
      --------------------------
      
      Integrals generated by Gateway/Seward, Tue Apr  9 00:43:48 2024


      OrdInt status: non-squared


      Cartesian coordinates in Angstrom:
      -----------------------------------------------------
      No.  Label        X            Y            Z        
      -----------------------------------------------------
       1   N1         0.00000000   0.00000000   0.00000000
       2   N2         0.00000000   0.00000000   6.00000000
      -----------------------------------------------------
      Nuclear repulsion energy =    4.32161389

++    Wave function specifications:
      -----------------------------

      Number of closed shell electrons           4
      Number of electrons in active shells      10
      Max number of holes in RAS1 space          0
      Max nr of electrons in RAS3 space          0
      Number of inactive orbitals                2
      Number of active orbitals                  8
      Number of secondary orbitals              50
      Spin quantum number                      0.0
      State symmetry                             1
--

++    Orbital specifications:
      -----------------------

      Symmetry species                           1
                                                 a
      Frozen orbitals                            0
      Inactive orbitals                          2
      Active orbitals                            8
      RAS1 orbitals                              0
      RAS2 orbitals                              8
      RAS3 orbitals                              0
      Secondary orbitals                        50
      Deleted orbitals                           0
      Number of basis functions                 60
--

++    DMRG specifications:
      ----------------------------

      Number of renormalized states              300
      (Max) number of sweeps                     5
      Convergence threshold (sweep tolerance)    0.100E-07
      Jacobi-Davidson threshold                  0.100E-10
      SVD truncation threshold (initial)         1e-50
      SVD truncation threshold (final)           0.100E-10
      Number of root(s) required                 1
      Root chosen for geometry opt.              1
      DMRG root used                             1
         
--

++    Optimization specifications:
      ----------------------------

      RASSCF algorithm: LK Cholesky
      Maximum number of macro iterations       200
      Maximum number of SX iterations          100
      Threshold for RASSCF energy            1.000E-08
      Threshold for max MO rotation          1.000E-01
      Threshold for max BLB element          1.000E-04
      Level shift parameter                  5.000E-01
      Make Quasi-Newton update
--

      The MO-coefficients are taken from the file:
      /public/home/xzzeng/work/HQC/N2/cc-pvtz/NO/PES/entropy/6.0/results/work_dir/n2/dmrg/n2.scf.h5_sel                                                                                                                                                               

      Total molecular charge    0.00

      ************************************************************************************************************************
      *                                                                                                                      *
      *                                            Wave function control section                                             *
      *                                                                                                                      *
      ************************************************************************************************************************


                                         DMRGCI only, no orbital optimization will be done.
                                         --------------------------------------------------

                                             Please cite for the QCMaquis-Molcas driver:

                                    Freitag L.; Keller S.; Knecht S.; Lindh R.; Ma Y.; 
                                    Stein C. J. and Reiher M., in preparation. (2018).
                                    ---------------------------------------------------------------

                                             Please cite for the QCMaquis DMRG software:

                                    S. Keller, M. Dolfi, M. Troyer, M. Reiher,
                                    J. Chem. Phys. 143, 244118 (2015)
                                    ---------------------------------------------------------------



      DMRGCI energy              :    -108.7413251046
      Total time spent (hh:mm:ss):            0:00:04


      Natural orbitals and occupation numbers for root  1
      sym 1:   1.999998   1.999998   1.000485   1.000057   1.000057   0.999944   0.999944   0.999517

      ************************************************************************************************************************
      *                                                                                                                      *
      *                                                    Final results                                                     *
      *                                                                                                                      *
      ************************************************************************************************************************


++    Wave function specifications:
      -----------------------------

      Number of closed shell electrons           4
      Number of electrons in active shells      10
      Max number of holes in RAS1 space          0
      Max nr of electrons in RAS3 space          0
      Number of inactive orbitals                2
      Number of active orbitals                  8
      Number of secondary orbitals              50
      Spin quantum number                      0.0
      State symmetry                             1
--

++    Orbital specifications:
      -----------------------

      Symmetry species                           1
                                                 a
      Frozen orbitals                            0
      Inactive orbitals                          2
      Active orbitals                            8
      RAS1 orbitals                              0
      RAS2 orbitals                              8
      RAS3 orbitals                              0
      Secondary orbitals                        50
      Deleted orbitals                           0
      Number of basis functions                 60
--

++    DMRG specifications:
      ----------------------------

      Number of renormalized states              300
      (Max) number of sweeps                     5
      Convergence threshold (sweep tolerance)    0.100E-07
      Jacobi-Davidson threshold                  0.100E-10
      SVD truncation threshold (initial)         1e-50
      SVD truncation threshold (final)           0.100E-10
      Number of root(s) required                 1
      DMRG root used                             1
      highest root included in the DMRG          1
      Root passed to geometry opt.               1
--

++    Final optimization conditions:
      ------------------------------

      Average CI energy                            -108.74132510
--


      Final state energy(ies):
      ------------------------

::    RASSCF root number  1 Total energy:   -108.74132510

++    Molecular orbitals:
      -------------------

      Pseudonatural active orbitals and approximate occupation numbers




      Molecular orbitals for symmetry species 1: a  


      Orbital                 1         2         3         4         5         6         7         8         9        10
      Energy             0.0000    0.0000    0.0000    0.0000    0.0000    0.0000    0.0000    0.0000    0.0000    0.0000
      Occ. No.           0.0000    0.0000    0.0000    0.0000    0.0000    0.0000    0.0000    0.0000    0.0000    0.0000

     1 N1     1s         0.2728   -0.9629    0.0013   -0.0016    0.0014    0.0000   -0.0000   -0.0000    0.0000    0.0009
     2 N1     2s         0.0001   -0.0003    0.7277   -0.7317    0.0083    0.0000    0.0000   -0.0000    0.0000    0.0086
     3 N1     *s        -0.0004    0.0013    0.0074   -0.0073   -0.0003   -0.0000    0.0000    0.0000   -0.0000   -0.0004
     4 N1     *s        -0.0000    0.0002   -0.0299    0.0316   -0.0072   -0.0000    0.0000    0.0000   -0.0000   -0.0042
     5 N1     2px       -0.0000   -0.0000    0.0000   -0.0000   -0.0000   -0.0030   -0.6471    0.0053    0.6469   -0.0000
     6 N1     *px       -0.0000    0.0000   -0.0000    0.0000    0.0000    0.0001    0.0177   -0.0001   -0.0178   -0.0000
     7 N1     *px       -0.0000    0.0000    0.0000   -0.0000   -0.0000   -0.0005   -0.0982    0.0008    0.0986    0.0000
     8 N1     2py        0.0000    0.0000    0.0000    0.0000   -0.0000    0.6471   -0.0030   -0.6469    0.0053   -0.0000
     9 N1     *py        0.0000   -0.0000   -0.0000   -0.0000    0.0000   -0.0177    0.0001    0.0178   -0.0001    0.0000
    10 N1     *py        0.0000   -0.0000   -0.0000    0.0000   -0.0000    0.0982   -0.0005   -0.0986    0.0008   -0.0000
    11 N1     2pz        0.0000   -0.0001    0.0011    0.0045   -0.6464    0.0000   -0.0000    0.0000   -0.0000    0.6471
    12 N1     *pz       -0.0000    0.0001   -0.0000   -0.0002    0.0182   -0.0000    0.0000   -0.0000    0.0000   -0.0174
    13 N1     *pz       -0.0000    0.0000    0.0008    0.0004   -0.0996    0.0000   -0.0000    0.0000    0.0000    0.0979
    14 N1     *d2-      -0.0000    0.0000   -0.0000    0.0000    0.0000   -0.0000    0.0000   -0.0000   -0.0000    0.0000
    15 N1     *d2-      -0.0000    0.0000   -0.0000    0.0000   -0.0000   -0.0000    0.0000   -0.0000   -0.0000   -0.0000
    16 N1     *d1-       0.0000   -0.0000    0.0000   -0.0000   -0.0000    0.0001   -0.0000   -0.0001    0.0000   -0.0000
    17 N1     *d1-       0.0000   -0.0000    0.0000   -0.0000    0.0000    0.0015   -0.0000    0.0012   -0.0000   -0.0000
    18 N1     *d0       -0.0000    0.0000   -0.0000    0.0000   -0.0001    0.0000   -0.0000   -0.0000   -0.0000    0.0001
    19 N1     *d0        0.0000    0.0000    0.0001    0.0001   -0.0018   -0.0000    0.0000    0.0000   -0.0000   -0.0014
    20 N1     *d1+       0.0000   -0.0000    0.0000   -0.0000   -0.0000   -0.0000   -0.0001    0.0000    0.0001    0.0000
    21 N1     *d1+       0.0000   -0.0000    0.0000   -0.0000    0.0000   -0.0000   -0.0015   -0.0000   -0.0012    0.0000
    22 N1     *d2+       0.0000   -0.0000    0.0000   -0.0000   -0.0000    0.0000    0.0000   -0.0000    0.0000   -0.0000
    23 N1     *d2+       0.0000   -0.0000    0.0000   -0.0000    0.0000    0.0000    0.0000   -0.0000    0.0000    0.0000
    24 N1     *f3-      -0.0000    0.0000    0.0000   -0.0000   -0.0000   -0.0000    0.0000    0.0000   -0.0000    0.0000
    25 N1     *f2-       0.0000   -0.0000    0.0000    0.0000   -0.0000   -0.0000    0.0000   -0.0000   -0.0000    0.0000
    26 N1     *f1-      -0.0000   -0.0000   -0.0000   -0.0000    0.0000    0.0000   -0.0000    0.0000   -0.0000   -0.0000
    27 N1     *f0        0.0000   -0.0000    0.0000    0.0000   -0.0000    0.0000   -0.0000   -0.0000   -0.0000   -0.0000
    28 N1     *f1+       0.0000   -0.0000   -0.0000   -0.0000    0.0000   -0.0000   -0.0000   -0.0000   -0.0000    0.0000
    29 N1     *f2+       0.0000   -0.0000    0.0000   -0.0000    0.0000    0.0000    0.0000   -0.0000    0.0000   -0.0000
    30 N1     *f3+      -0.0000    0.0000    0.0000   -0.0000   -0.0000    0.0000    0.0000   -0.0000   -0.0000    0.0000
    31 N2     1s         0.9629    0.2728    0.0013    0.0016    0.0014   -0.0000    0.0000   -0.0000    0.0000   -0.0009
    32 N2     2s         0.0004    0.0001    0.7302    0.7293    0.0083   -0.0000    0.0000   -0.0000    0.0000   -0.0086
    33 N2     *s        -0.0013   -0.0004    0.0074    0.0073   -0.0003    0.0000   -0.0000    0.0000   -0.0000    0.0004
    34 N2     *s        -0.0002   -0.0001   -0.0300   -0.0315   -0.0072    0.0000   -0.0000    0.0000   -0.0000    0.0042
    35 N2     2px        0.0000    0.0000    0.0000   -0.0000    0.0000   -0.0030   -0.6471   -0.0053   -0.6469   -0.0000
    36 N2     *px       -0.0000   -0.0000    0.0000    0.0000   -0.0000    0.0001    0.0177    0.0001    0.0178   -0.0000
    37 N2     *px       -0.0000   -0.0000    0.0000   -0.0000    0.0000   -0.0005   -0.0982   -0.0008   -0.0986    0.0000
    38 N2     2py        0.0000    0.0000    0.0000    0.0000    0.0000    0.6471   -0.0030    0.6469   -0.0053   -0.0000
    39 N2     *py       -0.0000   -0.0000    0.0000   -0.0000   -0.0000   -0.0177    0.0001   -0.0178    0.0001    0.0000
    40 N2     *py       -0.0000    0.0000    0.0000    0.0000    0.0000    0.0982   -0.0005    0.0986   -0.0008   -0.0000
    41 N2     2pz       -0.0001   -0.0000   -0.0011    0.0045    0.6464    0.0000   -0.0000   -0.0000    0.0000    0.6471
    42 N2     *pz        0.0001    0.0000    0.0000   -0.0002   -0.0182   -0.0000    0.0000    0.0000   -0.0000   -0.0174
    43 N2     *pz        0.0000    0.0000   -0.0008    0.0004    0.0996    0.0000   -0.0000   -0.0000   -0.0000    0.0979
    44 N2     *d2-       0.0000    0.0000    0.0000    0.0000   -0.0000    0.0000   -0.0000   -0.0000   -0.0000    0.0000
    45 N2     *d2-       0.0000    0.0000    0.0000    0.0000    0.0000    0.0000   -0.0000    0.0000   -0.0000   -0.0000
    46 N2     *d1-       0.0000    0.0000    0.0000    0.0000   -0.0000   -0.0001    0.0000   -0.0001    0.0000    0.0000
    47 N2     *d1-       0.0000    0.0000    0.0000    0.0000    0.0000   -0.0015    0.0000    0.0012   -0.0000    0.0000
    48 N2     *d0       -0.0000   -0.0000   -0.0000   -0.0000   -0.0001   -0.0000    0.0000   -0.0000   -0.0000   -0.0001
    49 N2     *d0        0.0000   -0.0000    0.0001   -0.0001   -0.0018    0.0000   -0.0000    0.0000   -0.0000    0.0014
    50 N2     *d1+       0.0000    0.0000   -0.0000   -0.0000    0.0000    0.0000    0.0001    0.0000    0.0001   -0.0000
    51 N2     *d1+       0.0000    0.0000    0.0000    0.0000    0.0000    0.0000    0.0015   -0.0000   -0.0012   -0.0000
    52 N2     *d2+      -0.0000   -0.0000   -0.0000   -0.0000    0.0000   -0.0000   -0.0000   -0.0000    0.0000   -0.0000
    53 N2     *d2+      -0.0000   -0.0000   -0.0000   -0.0000   -0.0000   -0.0000   -0.0000   -0.0000   -0.0000    0.0000
    54 N2     *f3-      -0.0000   -0.0000    0.0000    0.0000   -0.0000    0.0000   -0.0000    0.0000   -0.0000    0.0000
    55 N2     *f2-       0.0000    0.0000    0.0000   -0.0000   -0.0000   -0.0000    0.0000    0.0000    0.0000   -0.0000
    56 N2     *f1-      -0.0000   -0.0000    0.0000   -0.0000   -0.0000    0.0000   -0.0000   -0.0000    0.0000   -0.0000
    57 N2     *f0       -0.0000    0.0000   -0.0000    0.0000    0.0000    0.0000   -0.0000    0.0000    0.0000   -0.0000
    58 N2     *f1+      -0.0000   -0.0000    0.0000   -0.0000   -0.0000   -0.0000   -0.0000    0.0000    0.0000    0.0000
    59 N2     *f2+       0.0000    0.0000   -0.0000   -0.0000    0.0000    0.0000    0.0000    0.0000   -0.0000    0.0000
    60 N2     *f3+      -0.0000   -0.0000    0.0000   -0.0000   -0.0000   -0.0000   -0.0000   -0.0000   -0.0000    0.0000


      Orbital                11        12        13        14        15        16        17        18        19        20
      Energy             0.0000    0.0000    0.0000    0.0000    0.0000    0.0000    0.0000    0.0000    0.0000    0.0000
      Occ. No.           0.0000    0.0000    0.0000    0.0000    0.0000    0.0000    0.0000    0.0000    0.0000    0.0000

     1 N1     1s         0.0010    0.0000   -0.0000   -0.0000   -0.0000    0.0049   -0.3499   -0.3585    0.0001    0.0000
     2 N1     2s         0.0049    0.0000   -0.0000   -0.0000   -0.0000    0.0233   -1.6977   -1.7393    0.0006    0.0000
     3 N1     *s        -0.0003   -0.0000    0.0000    0.0000    0.0000   -0.0014    0.0979    0.1002   -0.0000   -0.0000
     4 N1     *s        -0.0049   -0.0000    0.0000    0.0000    0.0000   -0.0251    1.8285    1.8741   -0.0008   -0.0000
     5 N1     2px       -0.0000   -0.0001   -0.4901   -0.5053    0.0001   -0.0000   -0.0000    0.0000    0.0000   -0.0015
     6 N1     *px       -0.0000   -0.0001   -0.3436   -0.3540    0.0001   -0.0000   -0.0000   -0.0000   -0.0000   -0.0000
     7 N1     *px        0.0000    0.0002    1.0012    1.0316   -0.0002    0.0000    0.0000    0.0000    0.0000   -0.0000
     8 N1     2py        0.0002   -0.4897    0.0001    0.0001    0.5056    0.0001    0.0000    0.0000   -0.0000    0.0000
     9 N1     *py        0.0001   -0.3434    0.0001    0.0001    0.3543    0.0001    0.0000    0.0000    0.0000    0.0000
    10 N1     *py       -0.0003    1.0005   -0.0002   -0.0002   -1.0323   -0.0003   -0.0000   -0.0000   -0.0000    0.0000
    11 N1     2pz        0.4979   -0.0001    0.0000   -0.0000   -0.0002   -0.4979   -0.0010   -0.0056   -0.0017    0.0000
    12 N1     *pz        0.3491   -0.0001    0.0000   -0.0000   -0.0001   -0.3487    0.0010   -0.0047    0.0000   -0.0000
    13 N1     *pz       -1.0157    0.0003   -0.0000    0.0000    0.0003    1.0172   -0.0033    0.0141   -0.0002    0.0000
    14 N1     *d2-       0.0000   -0.0000    0.0000    0.0000    0.0000    0.0000   -0.0000   -0.0000    0.0000    0.0000
    15 N1     *d2-      -0.0000   -0.0000    0.0000    0.0000    0.0000   -0.0000    0.0000    0.0000   -0.0000   -0.0003
    16 N1     *d1-       0.0000   -0.0000    0.0000    0.0000    0.0000    0.0000    0.0000    0.0000    0.0000    0.0001
    17 N1     *d1-       0.0000   -0.0001    0.0000    0.0000    0.0001    0.0000   -0.0000   -0.0000   -0.0001   -0.0079
    18 N1     *d0        0.0001   -0.0000    0.0000   -0.0000   -0.0000   -0.0001   -0.0000    0.0000   -0.0135   -0.0000
    19 N1     *d0        0.0000   -0.0000    0.0000   -0.0000   -0.0000   -0.0003    0.0003   -0.0003    0.7126    0.0000
    20 N1     *d1+      -0.0000   -0.0000   -0.0000   -0.0000    0.0000   -0.0000   -0.0000   -0.0000   -0.0000   -0.0135
    21 N1     *d1+      -0.0000   -0.0000   -0.0001   -0.0001    0.0000   -0.0000    0.0000    0.0000    0.0000    0.7122
    22 N1     *d2+      -0.0000   -0.0000   -0.0000   -0.0000    0.0000   -0.0000    0.0000    0.0000   -0.0000   -0.0000
    23 N1     *d2+       0.0000   -0.0000   -0.0000   -0.0000    0.0000    0.0000   -0.0000   -0.0000    0.0000    0.0000
    24 N1     *f3-       0.0000   -0.0000   -0.0000   -0.0000    0.0000    0.0000   -0.0000   -0.0000   -0.0000   -0.0000
    25 N1     *f2-       0.0000   -0.0000    0.0000    0.0000    0.0000   -0.0000   -0.0000   -0.0000   -0.0000   -0.0000
    26 N1     *f1-      -0.0000   -0.0000    0.0000    0.0000    0.0000    0.0000    0.0000    0.0000   -0.0000   -0.0000
    27 N1     *f0       -0.0000   -0.0000    0.0000    0.0000    0.0000   -0.0000    0.0000   -0.0000    0.0001    0.0000
    28 N1     *f1+       0.0000   -0.0000   -0.0000   -0.0000    0.0000   -0.0000   -0.0000   -0.0000    0.0000    0.0001
    29 N1     *f2+      -0.0000   -0.0000   -0.0000   -0.0000    0.0000    0.0000   -0.0000   -0.0000    0.0000    0.0000
    30 N1     *f3+       0.0000    0.0000    0.0000    0.0000   -0.0000    0.0000    0.0000    0.0000    0.0000   -0.0000
    31 N2     1s         0.0010   -0.0000    0.0000   -0.0000   -0.0000   -0.0049   -0.3587    0.3498    0.0001   -0.0000
    32 N2     2s         0.0049   -0.0000    0.0000   -0.0000   -0.0000   -0.0233   -1.7402    1.6969    0.0006   -0.0000
    33 N2     *s        -0.0003    0.0000   -0.0000    0.0000    0.0000    0.0014    0.1004   -0.0978   -0.0000    0.0000
    34 N2     *s        -0.0048    0.0000   -0.0000    0.0000    0.0000    0.0252    1.8743   -1.8283   -0.0008    0.0000
    35 N2     2px        0.0000   -0.0001   -0.5050    0.4904   -0.0001   -0.0000    0.0000    0.0000   -0.0000   -0.0015
    36 N2     *px        0.0000   -0.0001   -0.3541    0.3436   -0.0001   -0.0000    0.0000   -0.0000    0.0000   -0.0000
    37 N2     *px       -0.0000    0.0003    1.0316   -1.0012    0.0002    0.0000   -0.0000   -0.0000   -0.0000   -0.0000
    38 N2     2py       -0.0002   -0.5053    0.0001   -0.0001   -0.4901    0.0001   -0.0000    0.0000    0.0000    0.0000
    39 N2     *py       -0.0001   -0.3543    0.0001   -0.0001   -0.3434    0.0001   -0.0000    0.0000   -0.0000    0.0000
    40 N2     *py        0.0003    1.0323   -0.0002    0.0002    1.0005   -0.0003    0.0000   -0.0000    0.0000    0.0000
    41 N2     2pz       -0.4982   -0.0001    0.0000    0.0000    0.0002   -0.4976    0.0011   -0.0056    0.0017    0.0000
    42 N2     *pz       -0.3493   -0.0001    0.0000    0.0000    0.0001   -0.3485   -0.0008   -0.0047   -0.0000   -0.0000
    43 N2     *pz        1.0164    0.0003   -0.0000   -0.0000   -0.0003    1.0164    0.0030    0.0142    0.0002    0.0000
    44 N2     *d2-      -0.0000    0.0000   -0.0000    0.0000    0.0000    0.0000    0.0000   -0.0000   -0.0000   -0.0000
    45 N2     *d2-       0.0000    0.0000   -0.0000    0.0000    0.0000   -0.0000   -0.0000    0.0000    0.0000    0.0003
    46 N2     *d1-       0.0000    0.0001   -0.0000    0.0000    0.0000   -0.0000    0.0000   -0.0000    0.0000   -0.0002
    47 N2     *d1-       0.0000    0.0001   -0.0000    0.0000    0.0001   -0.0000   -0.0000    0.0000   -0.0001    0.0079
    48 N2     *d0        0.0001    0.0000   -0.0000   -0.0000   -0.0000    0.0001   -0.0000   -0.0000   -0.0135    0.0000
    49 N2     *d0        0.0000    0.0000   -0.0000   -0.0000   -0.0000    0.0003    0.0003    0.0003    0.7155   -0.0000
    50 N2     *d1+      -0.0000    0.0000    0.0001   -0.0000    0.0000    0.0000   -0.0000    0.0000   -0.0000    0.0135
    51 N2     *d1+      -0.0000    0.0000    0.0001   -0.0001    0.0000    0.0000    0.0000   -0.0000    0.0000   -0.7158
    52 N2     *d2+       0.0000    0.0000    0.0000   -0.0000    0.0000   -0.0000   -0.0000    0.0000    0.0000    0.0000
    53 N2     *d2+      -0.0000    0.0000    0.0000   -0.0000    0.0000    0.0000    0.0000   -0.0000   -0.0000   -0.0000
    54 N2     *f3-      -0.0000   -0.0000    0.0000   -0.0000   -0.0000    0.0000   -0.0000   -0.0000   -0.0000   -0.0000
    55 N2     *f2-       0.0000   -0.0000    0.0000   -0.0000   -0.0000    0.0000   -0.0000    0.0000   -0.0000   -0.0000
    56 N2     *f1-       0.0000   -0.0000    0.0000   -0.0000   -0.0000    0.0000   -0.0000    0.0000    0.0000   -0.0000
    57 N2     *f0        0.0000   -0.0000    0.0000   -0.0000   -0.0000   -0.0000   -0.0000   -0.0000   -0.0001    0.0000
    58 N2     *f1+      -0.0000   -0.0000   -0.0000    0.0000   -0.0000   -0.0000    0.0000   -0.0000   -0.0000    0.0001
    59 N2     *f2+      -0.0000   -0.0000   -0.0000    0.0000   -0.0000   -0.0000    0.0000   -0.0000    0.0000    0.0000
    60 N2     *f3+       0.0000   -0.0000   -0.0000    0.0000   -0.0000   -0.0000   -0.0000   -0.0000   -0.0000   -0.0000


      Orbital                21        22        23        24        25        26        27        28        29        30
      Energy             0.0000    0.0000    0.0000    0.0000    0.0000    0.0000    0.0000    0.0000    0.0000    0.0000
      Occ. No.           0.0000    0.0000    0.0000    0.0000    0.0000    0.0000    0.0000    0.0000    0.0000    0.0000

     1 N1     1s         0.0000   -0.0000    0.0000    0.0000   -0.0000   -0.0000   -0.0000    0.0001    0.0003    0.0000
     2 N1     2s         0.0000   -0.0000    0.0000    0.0000   -0.0000   -0.0000   -0.0000    0.0005    0.0004    0.0000
     3 N1     *s        -0.0000    0.0000   -0.0000   -0.0000    0.0000    0.0000    0.0000   -0.0000   -0.0004   -0.0000
     4 N1     *s        -0.0000    0.0000   -0.0000   -0.0000    0.0000    0.0000    0.0000   -0.0007   -0.0002   -0.0000
     5 N1     2px        0.0000    0.0000   -0.0000   -0.0000    0.0000    0.0000   -0.0009   -0.0000   -0.0000   -1.5843
     6 N1     *px        0.0000   -0.0000    0.0000   -0.0000    0.0000   -0.0000    0.0001   -0.0000    0.0000    1.4678
     7 N1     *px        0.0000    0.0000   -0.0000   -0.0000    0.0000    0.0000   -0.0004    0.0000    0.0000    0.2530
     8 N1     2py        0.0015    0.0000    0.0000   -0.0000   -0.0000    0.0009    0.0000    0.0000    0.0018    0.0014
     9 N1     *py        0.0000   -0.0000   -0.0000   -0.0000   -0.0000   -0.0001   -0.0000    0.0000   -0.0016   -0.0013
    10 N1     *py        0.0000    0.0000    0.0000   -0.0000   -0.0000    0.0004    0.0000   -0.0000   -0.0003   -0.0002
    11 N1     2pz        0.0000    0.0000   -0.0000   -0.0000    0.0000   -0.0000   -0.0000   -0.0010   -2.4188   -0.0000
    12 N1     *pz       -0.0000   -0.0000    0.0000    0.0000   -0.0000    0.0000   -0.0000    0.0001    2.2407    0.0000
    13 N1     *pz        0.0000    0.0000   -0.0000   -0.0000    0.0000   -0.0000   -0.0000   -0.0006    0.3867    0.0000
    14 N1     *d2-       0.0000    0.0000   -0.0135    0.0000    0.0135    0.0000    0.0000    0.0000    0.0000    0.0000
    15 N1     *d2-      -0.0000   -0.0000    0.7131   -0.0000   -0.7150   -0.0000   -0.0003   -0.0000   -0.0000    0.0000
    16 N1     *d1-       0.0135   -0.0000   -0.0000   -0.0000   -0.0000   -0.0135   -0.0000    0.0000    0.0000    0.0000
    17 N1     *d1-      -0.7123    0.0003    0.0000    0.0003    0.0000    0.7158    0.0008   -0.0001   -0.0000   -0.0000
    18 N1     *d0       -0.0000   -0.0000    0.0000   -0.0000    0.0000   -0.0000   -0.0000    0.0135   -0.0002   -0.0000
    19 N1     *d0        0.0001    0.0000   -0.0000    0.0000   -0.0000    0.0001    0.0000   -0.7155    0.0001    0.0000
    20 N1     *d1+       0.0001   -0.0000    0.0000   -0.0000    0.0000   -0.0000    0.0135   -0.0000   -0.0000   -0.0001
    21 N1     *d1+      -0.0079    0.0000   -0.0003    0.0000   -0.0003    0.0008   -0.7158    0.0000    0.0000    0.0000
    22 N1     *d2+       0.0000   -0.0135   -0.0000    0.0135   -0.0000    0.0000   -0.0000   -0.0000    0.0000   -0.0000
    23 N1     *d2+      -0.0003    0.7129    0.0000   -0.7152    0.0000   -0.0003    0.0000    0.0000    0.0000   -0.0000
    24 N1     *f3-      -0.0000   -0.0000    0.0000    0.0000   -0.0000   -0.0000   -0.0000   -0.0000   -0.0000   -0.0000
    25 N1     *f2-      -0.0000   -0.0000    0.0001   -0.0000   -0.0000   -0.0000   -0.0000   -0.0000    0.0000   -0.0000
    26 N1     *f1-      -0.0001    0.0000    0.0000    0.0000    0.0000    0.0001    0.0000   -0.0000   -0.0000    0.0000
    27 N1     *f0        0.0000    0.0000   -0.0000    0.0000   -0.0000    0.0000    0.0000   -0.0001   -0.0000   -0.0000
    28 N1     *f1+      -0.0000    0.0000   -0.0000    0.0000   -0.0000    0.0000   -0.0001    0.0000    0.0000   -0.0000
    29 N1     *f2+      -0.0000    0.0001    0.0000   -0.0000    0.0000   -0.0000    0.0000    0.0000   -0.0000    0.0000
    30 N1     *f3+       0.0000    0.0000    0.0000   -0.0000   -0.0000    0.0000   -0.0000    0.0000   -0.0000   -0.0000
    31 N2     1s        -0.0000    0.0000   -0.0000    0.0000   -0.0000   -0.0000   -0.0000   -0.0001    0.0003    0.0000
    32 N2     2s        -0.0000    0.0000   -0.0000    0.0000   -0.0000   -0.0000   -0.0000   -0.0005    0.0004   -0.0000
    33 N2     *s         0.0000   -0.0000    0.0000   -0.0000    0.0000    0.0000    0.0000    0.0000   -0.0004   -0.0000
    34 N2     *s         0.0000   -0.0000    0.0000   -0.0000    0.0000    0.0000    0.0000    0.0007   -0.0002    0.0000
    35 N2     2px        0.0000   -0.0000    0.0000   -0.0000    0.0000   -0.0000    0.0009   -0.0000    0.0000   -3.0359
    36 N2     *px        0.0000    0.0000   -0.0000   -0.0000    0.0000    0.0000   -0.0001   -0.0000   -0.0000    2.8128
    37 N2     *px        0.0000   -0.0000    0.0000   -0.0000    0.0000   -0.0000    0.0004   -0.0000   -0.0000    0.4848
    38 N2     2py        0.0015   -0.0000   -0.0000   -0.0000   -0.0000   -0.0009   -0.0000    0.0000   -0.0019    0.0026
    39 N2     *py        0.0000    0.0000    0.0000   -0.0000   -0.0000    0.0001    0.0000    0.0000    0.0018   -0.0024
    40 N2     *py        0.0000   -0.0000   -0.0000   -0.0000   -0.0000   -0.0004   -0.0000    0.0000    0.0003   -0.0004
    41 N2     2pz        0.0000    0.0000   -0.0000    0.0000   -0.0000    0.0000    0.0000   -0.0010    2.4241   -0.0000
    42 N2     *pz       -0.0000   -0.0000    0.0000   -0.0000    0.0000    0.0000    0.0000    0.0001   -2.2456    0.0000
    43 N2     *pz        0.0000    0.0000   -0.0000    0.0000   -0.0000    0.0000    0.0000   -0.0006   -0.3875    0.0000
    44 N2     *d2-      -0.0000    0.0000   -0.0135   -0.0000   -0.0135    0.0000    0.0000    0.0000    0.0000   -0.0000
    45 N2     *d2-       0.0000   -0.0000    0.7150    0.0000    0.7131   -0.0000   -0.0003   -0.0000    0.0000   -0.0000
    46 N2     *d1-      -0.0135   -0.0000   -0.0000    0.0000    0.0000   -0.0135   -0.0000   -0.0000    0.0000   -0.0000
    47 N2     *d1-       0.7157    0.0003    0.0000   -0.0003   -0.0000    0.7123    0.0008    0.0001   -0.0000    0.0000
    48 N2     *d0        0.0000    0.0000   -0.0000   -0.0000    0.0000   -0.0000   -0.0000   -0.0135   -0.0002    0.0000
    49 N2     *d0       -0.0001   -0.0000    0.0000    0.0000   -0.0000    0.0001    0.0000    0.7126    0.0001   -0.0000
    50 N2     *d1+      -0.0002   -0.0000    0.0000    0.0000   -0.0000   -0.0000    0.0135    0.0000   -0.0000    0.0002
    51 N2     *d1+       0.0079    0.0000   -0.0003   -0.0000    0.0003    0.0008   -0.7123   -0.0000    0.0000   -0.0001
    52 N2     *d2+      -0.0000   -0.0135   -0.0000   -0.0135    0.0000    0.0000   -0.0000   -0.0000    0.0000    0.0000
    53 N2     *d2+       0.0003    0.7152    0.0000    0.7129   -0.0000   -0.0003    0.0000    0.0000   -0.0000   -0.0000
    54 N2     *f3-      -0.0000    0.0000   -0.0000    0.0000   -0.0000    0.0000    0.0000    0.0000    0.0000   -0.0000
    55 N2     *f2-      -0.0000    0.0000   -0.0001   -0.0000   -0.0000    0.0000    0.0000    0.0000    0.0000   -0.0000
    56 N2     *f1-      -0.0001   -0.0000   -0.0000    0.0000    0.0000   -0.0001   -0.0000   -0.0000    0.0000   -0.0000
    57 N2     *f0        0.0000    0.0000   -0.0000   -0.0000    0.0000   -0.0000   -0.0000   -0.0001    0.0000   -0.0000
    58 N2     *f1+      -0.0000   -0.0000    0.0000    0.0000   -0.0000   -0.0000    0.0001    0.0000   -0.0000    0.0000
    59 N2     *f2+      -0.0000   -0.0001   -0.0000   -0.0000    0.0000    0.0000   -0.0000   -0.0000   -0.0000    0.0000
    60 N2     *f3+       0.0000   -0.0000   -0.0000   -0.0000   -0.0000   -0.0000    0.0000   -0.0000    0.0000   -0.0000


      Orbital                31        32        33        34        35        36        37        38        39        40
      Energy             0.0000    0.0000    0.0000    0.0000    0.0000    0.0000    0.0000    0.0000    0.0000    0.0000
      Occ. No.           0.0000    0.0000    0.0000    0.0000    0.0000    0.0000    0.0000    0.0000    0.0000    0.0000

     1 N1     1s         0.0000    0.0000   -0.0000    0.0001    0.0000    0.0000   -0.0000   -0.0000   -0.0000    0.0000
     2 N1     2s         0.0000    0.0000   -0.0000    0.0002    0.0000    0.0000   -0.0000   -0.0000   -0.0000    0.0000
     3 N1     *s        -0.0000   -0.0000    0.0000   -0.0001   -0.0000   -0.0000    0.0000    0.0000    0.0000   -0.0000
     4 N1     *s        -0.0000   -0.0000    0.0000   -0.0003    0.0000   -0.0000    0.0000    0.0000    0.0000   -0.0000
     5 N1     2px        0.0014   -0.0026   -3.0359    0.0000    0.0000    0.0000   -0.0000    0.0000    0.0000    0.0000
     6 N1     *px       -0.0013    0.0024    2.8128   -0.0000   -0.0000   -0.0000    0.0000   -0.0000    0.0000   -0.0000
     7 N1     *px       -0.0002    0.0004    0.4848   -0.0000   -0.0000    0.0000   -0.0000    0.0000    0.0000    0.0000
     8 N1     2py        1.5896   -3.0332    0.0026   -0.0017   -0.0000   -0.0000    0.0000    0.0000   -0.0000    0.0000
     9 N1     *py       -1.4727    2.8102   -0.0024    0.0016    0.0000    0.0000   -0.0000   -0.0000   -0.0000   -0.0000
    10 N1     *py       -0.2539    0.4843   -0.0004    0.0003    0.0000   -0.0000    0.0000    0.0000   -0.0000    0.0000
    11 N1     2pz       -0.0022   -0.0012    0.0000   -2.4241    0.0001   -0.0000    0.0000    0.0000    0.0000   -0.0000
    12 N1     *pz        0.0020    0.0011   -0.0000    2.2462   -0.0000    0.0000   -0.0000   -0.0000    0.0000    0.0000
    13 N1     *pz        0.0003    0.0002   -0.0000    0.3867    0.0000   -0.0000    0.0000    0.0000    0.0000   -0.0000
    14 N1     *d2-       0.0000   -0.0000    0.0000    0.0000    0.0000   -0.0003   -0.0001    0.0000    0.0000   -0.0000
    15 N1     *d2-       0.0000   -0.0000    0.0000   -0.0000   -0.0000    0.0002    0.0000   -0.0000   -0.0000    0.0000
    16 N1     *d1-       0.0001   -0.0002    0.0000   -0.0000    0.0000    0.0000   -0.0000   -0.0006    0.0001    0.0001
    17 N1     *d1-      -0.0000    0.0001   -0.0000    0.0000   -0.0000   -0.0000    0.0000    0.0004   -0.0000   -0.0000
    18 N1     *d0       -0.0000   -0.0000    0.0000   -0.0002   -0.0006   -0.0000    0.0000    0.0001    0.0007   -0.0000
    19 N1     *d0        0.0000    0.0000   -0.0000    0.0001    0.0004    0.0000   -0.0000   -0.0000   -0.0004    0.0000
    20 N1     *d1+       0.0000   -0.0000   -0.0002    0.0000   -0.0000   -0.0000    0.0006   -0.0000   -0.0000    0.0000
    21 N1     *d1+      -0.0000    0.0000    0.0001   -0.0000    0.0000    0.0000   -0.0004    0.0000    0.0000   -0.0000
    22 N1     *d2+       0.0000   -0.0000   -0.0000   -0.0000   -0.0000   -0.0000   -0.0000   -0.0000    0.0000    0.0004
    23 N1     *d2+       0.0000   -0.0000   -0.0000    0.0000    0.0000    0.0000    0.0000    0.0000   -0.0000   -0.0003
    24 N1     *f3-      -0.0000    0.0000   -0.0000    0.0000    0.0001   -0.0002   -0.0001    0.0006   -0.0008   -0.0220
    25 N1     *f2-      -0.0000    0.0000   -0.0000    0.0000    0.0000   -0.4842   -0.0884    0.0008    0.0005   -0.0002
    26 N1     *f1-       0.0000   -0.0000    0.0000   -0.0000    0.0051    0.0002   -0.0183   -0.6378    0.0597    0.0638
    27 N1     *f0       -0.0000    0.0000   -0.0000   -0.0000   -0.6505   -0.0001    0.0036    0.0748    0.7554   -0.0232
    28 N1     *f1+       0.0000   -0.0000   -0.0000    0.0000   -0.0001   -0.0137    0.6293   -0.0181   -0.0011    0.0013
    29 N1     *f2+      -0.0000    0.0000    0.0000   -0.0000   -0.0027   -0.0000   -0.0001   -0.0124    0.0227    0.5621
    30 N1     *f3+       0.0000   -0.0000   -0.0000    0.0000   -0.0000   -0.0118    0.0054   -0.0002    0.0000    0.0005
    31 N2     1s         0.0000    0.0000   -0.0000   -0.0001    0.0000   -0.0000    0.0000    0.0000    0.0000   -0.0000
    32 N2     2s        -0.0000    0.0000   -0.0000   -0.0002    0.0000   -0.0000    0.0000    0.0000    0.0000   -0.0000
    33 N2     *s        -0.0000   -0.0000    0.0000    0.0001   -0.0000   -0.0000   -0.0000   -0.0000   -0.0000   -0.0000
    34 N2     *s         0.0000   -0.0000    0.0000    0.0003    0.0000    0.0000   -0.0000   -0.0000   -0.0000    0.0000
    35 N2     2px        0.0026    0.0014    1.5843    0.0000   -0.0000   -0.0000   -0.0000    0.0000    0.0000   -0.0000
    36 N2     *px       -0.0024   -0.0013   -1.4678   -0.0000    0.0000    0.0000   -0.0000    0.0000    0.0000    0.0000
    37 N2     *px       -0.0004   -0.0002   -0.2530   -0.0000    0.0000    0.0000   -0.0000    0.0000    0.0000   -0.0000
    38 N2     2py        3.0332    1.5896   -0.0014   -0.0016    0.0000    0.0000    0.0000    0.0000   -0.0000   -0.0000
    39 N2     *py       -2.8102   -1.4728    0.0013    0.0015   -0.0000   -0.0000    0.0000    0.0000   -0.0000    0.0000
    40 N2     *py       -0.4844   -0.2538    0.0002    0.0003   -0.0000   -0.0000    0.0000    0.0000   -0.0000   -0.0000
    41 N2     2pz       -0.0009    0.0023   -0.0000   -2.4189   -0.0001   -0.0000    0.0000    0.0000    0.0000   -0.0000
    42 N2     *pz        0.0009   -0.0021    0.0000    2.2413    0.0000    0.0000   -0.0000   -0.0000    0.0000   -0.0000
    43 N2     *pz        0.0002   -0.0004    0.0000    0.3859   -0.0000   -0.0000    0.0000    0.0000    0.0000   -0.0000
    44 N2     *d2-      -0.0000   -0.0000    0.0000    0.0000    0.0000   -0.0006   -0.0000    0.0000   -0.0000    0.0000
    45 N2     *d2-       0.0000    0.0000    0.0000   -0.0000   -0.0000    0.0004    0.0000   -0.0000    0.0000   -0.0000
    46 N2     *d1-      -0.0002   -0.0001    0.0000    0.0000    0.0000   -0.0000    0.0000    0.0007   -0.0001    0.0000
    47 N2     *d1-       0.0001    0.0000   -0.0000   -0.0000   -0.0000    0.0000   -0.0000   -0.0004    0.0000   -0.0000
    48 N2     *d0        0.0000   -0.0000    0.0000    0.0002   -0.0007    0.0000   -0.0000   -0.0001   -0.0006    0.0000
    49 N2     *d0       -0.0000    0.0000   -0.0000   -0.0001    0.0005   -0.0000    0.0000    0.0000    0.0004   -0.0000
    50 N2     *d1+      -0.0000   -0.0000   -0.0001   -0.0000   -0.0000    0.0001   -0.0007    0.0000    0.0000    0.0000
    51 N2     *d1+       0.0000    0.0000    0.0000    0.0000    0.0000   -0.0000    0.0004   -0.0000   -0.0000   -0.0000
    52 N2     *d2+      -0.0000   -0.0000   -0.0000   -0.0000    0.0000    0.0000    0.0000    0.0000    0.0000    0.0006
    53 N2     *d2+      -0.0000   -0.0000    0.0000    0.0000   -0.0000   -0.0000   -0.0000   -0.0000   -0.0000   -0.0004
    54 N2     *f3-      -0.0000   -0.0000    0.0000    0.0000    0.0001    0.0005   -0.0000   -0.0005    0.0011    0.0417
    55 N2     *f2-      -0.0000   -0.0000    0.0000   -0.0000   -0.0000    0.8724    0.0138   -0.0002    0.0001   -0.0001
    56 N2     *f1-      -0.0000   -0.0000    0.0000   -0.0000   -0.0089    0.0012   -0.0217   -0.7627    0.0752   -0.0278
    57 N2     *f0       -0.0000   -0.0000    0.0000   -0.0000    0.7594   -0.0000    0.0029    0.0592    0.6475   -0.0234
    58 N2     *f1+      -0.0000   -0.0000   -0.0000    0.0000    0.0002   -0.0598    0.7714   -0.0223   -0.0015   -0.0005
    59 N2     *f2+      -0.0000   -0.0000   -0.0000    0.0000   -0.0044   -0.0000   -0.0003   -0.0360   -0.0221   -0.8221
    60 N2     *f3+      -0.0000   -0.0000    0.0000    0.0000   -0.0000    0.0252   -0.0014    0.0000   -0.0000   -0.0008


      Orbital                41        42        43        44        45        46        47        48        49        50
      Energy             0.0000    0.0000    0.0000    0.0000    0.0000    0.0000    0.0000    0.0000    0.0000    0.0000
      Occ. No.           0.0000    0.0000    0.0000    0.0000    0.0000    0.0000    0.0000    0.0000    0.0000    0.0000

     1 N1     1s         0.0000   -0.0000    0.0000    0.0000   -0.0000   -0.0000    0.0000   -0.0000    0.0000   -0.0000
     2 N1     2s         0.0000   -0.0000    0.0000    0.0000   -0.0000   -0.0000    0.0000   -0.0000    0.0000   -0.0000
     3 N1     *s        -0.0000    0.0000   -0.0000   -0.0000    0.0000    0.0000   -0.0000    0.0000   -0.0000    0.0000
     4 N1     *s        -0.0000   -0.0000    0.0000   -0.0000   -0.0000    0.0000   -0.0000    0.0000   -0.0000    0.0000
     5 N1     2px       -0.0000    0.0000    0.0000    0.0000   -0.0000   -0.0000   -0.0000   -0.0000    0.0001   -0.0000
     6 N1     *px        0.0000    0.0000    0.0000   -0.0000    0.0000    0.0000    0.0000    0.0000   -0.0000    0.0000
     7 N1     *px       -0.0000    0.0000    0.0000   -0.0000   -0.0000    0.0000    0.0000    0.0000   -0.0000    0.0000
     8 N1     2py        0.0000    0.0000   -0.0000    0.0000    0.0000   -0.0000    0.0000   -0.0000    0.0000    0.0001
     9 N1     *py       -0.0000    0.0000   -0.0000   -0.0000   -0.0000    0.0000   -0.0000    0.0000   -0.0000   -0.0000
    10 N1     *py        0.0000    0.0000   -0.0000   -0.0000   -0.0000    0.0000   -0.0000    0.0000   -0.0000   -0.0000
    11 N1     2pz       -0.0000   -0.0000    0.0000    0.0000   -0.0000   -0.0000   -0.0000    0.0000    0.0000   -0.0000
    12 N1     *pz       -0.0000    0.0000   -0.0000   -0.0000    0.0000   -0.0000    0.0000   -0.0000   -0.0000    0.0000
    13 N1     *pz       -0.0000    0.0000   -0.0000   -0.0000    0.0000   -0.0000    0.0000    0.0000    0.0000   -0.0000
    14 N1     *d2-       0.0006   -0.0000    0.0000   -0.0000   -0.0000   -0.0000   -0.0000   -0.0000   -0.0092    0.0002
    15 N1     *d2-      -0.0004    0.0000   -0.0000    0.0000    0.0000    0.0000    0.0000    0.0000    0.0047   -0.0001
    16 N1     *d1-      -0.0000    0.0007   -0.0000   -0.0001    0.0000    0.0000   -0.0000    0.0000   -0.0002   -0.0648
    17 N1     *d1-       0.0000   -0.0004    0.0000    0.0000   -0.0000   -0.0000    0.0000   -0.0000    0.0001    0.0328
    18 N1     *d0       -0.0000    0.0000   -0.0000   -0.0000    0.0000    0.0000    0.0000    0.0000   -0.0000    0.0000
    19 N1     *d0        0.0000   -0.0000    0.0000    0.0000   -0.0000   -0.0000   -0.0000   -0.0000    0.0000   -0.0000
    20 N1     *d1+       0.0000    0.0000    0.0007   -0.0000   -0.0000   -0.0000   -0.0000   -0.0000   -0.0650    0.0002
    21 N1     *d1+      -0.0000   -0.0000   -0.0004    0.0000    0.0000    0.0000    0.0000    0.0000    0.0329   -0.0001
    22 N1     *d2+       0.0000    0.0000    0.0000    0.0006    0.0000   -0.0001    0.0000   -0.0000    0.0000    0.0021
    23 N1     *d2+      -0.0000   -0.0000   -0.0000   -0.0003   -0.0000    0.0001   -0.0000    0.0000   -0.0000   -0.0011
    24 N1     *f3-       0.0009   -0.0076   -0.0001   -0.1558    0.0093   -0.4262    0.0248   -0.8904   -0.0000   -0.0000
    25 N1     *f2-       0.8686   -0.0006    0.0327   -0.0000   -0.0341   -0.0000   -0.0329   -0.0003    0.0000   -0.0000
    26 N1     *f1-      -0.0005    0.7608   -0.0015   -0.0798    0.0001    0.0038   -0.0000    0.0037    0.0000    0.0000
    27 N1     *f0       -0.0001    0.0092   -0.0002   -0.0061    0.0000    0.0010    0.0000    0.0004    0.0000    0.0000
    28 N1     *f1+       0.0253    0.0012    0.7756   -0.0020   -0.0263   -0.0003   -0.0245   -0.0006    0.0000   -0.0000
    29 N1     *f2+       0.0001    0.0263    0.0007    0.8034    0.0002   -0.1806    0.0006   -0.0682   -0.0000   -0.0000
    30 N1     *f3+       0.0440    0.0001    0.0374    0.0030    0.4508    0.0088    0.8903    0.0248    0.0000   -0.0000
    31 N2     1s        -0.0000   -0.0000    0.0000   -0.0000   -0.0000    0.0000   -0.0000    0.0000   -0.0000    0.0000
    32 N2     2s        -0.0000   -0.0000    0.0000   -0.0000   -0.0000    0.0000   -0.0000    0.0000   -0.0000    0.0000
    33 N2     *s         0.0000    0.0000   -0.0000   -0.0000    0.0000   -0.0000    0.0000    0.0000    0.0000   -0.0000
    34 N2     *s         0.0000   -0.0000    0.0000    0.0000   -0.0000   -0.0000   -0.0000   -0.0000    0.0000   -0.0000
    35 N2     2px       -0.0000   -0.0000   -0.0000    0.0000    0.0000    0.0000    0.0000    0.0000    0.0007   -0.0000
    36 N2     *px        0.0000    0.0000    0.0000   -0.0000    0.0000    0.0000   -0.0000   -0.0000   -0.0005    0.0000
    37 N2     *px       -0.0000   -0.0000   -0.0000    0.0000    0.0000    0.0000    0.0000    0.0000   -0.0002    0.0000
    38 N2     2py        0.0000   -0.0000    0.0000    0.0000    0.0000   -0.0000   -0.0000    0.0000    0.0000    0.0007
    39 N2     *py       -0.0000    0.0000   -0.0000   -0.0000   -0.0000    0.0000    0.0000   -0.0000   -0.0000   -0.0005
    40 N2     *py        0.0000   -0.0000    0.0000    0.0000   -0.0000    0.0000    0.0000   -0.0000   -0.0000   -0.0002
    41 N2     2pz        0.0000    0.0000   -0.0000   -0.0000    0.0000    0.0000    0.0000    0.0000    0.0000   -0.0000
    42 N2     *pz       -0.0000   -0.0000    0.0000   -0.0000   -0.0000    0.0000   -0.0000   -0.0000   -0.0000    0.0000
    43 N2     *pz       -0.0000   -0.0000    0.0000   -0.0000   -0.0000    0.0000   -0.0000    0.0000   -0.0000    0.0000
    44 N2     *d2-      -0.0003   -0.0000    0.0000   -0.0000    0.0000    0.0000   -0.0000   -0.0000   -0.3784    0.0096
    45 N2     *d2-       0.0002    0.0000   -0.0000    0.0000   -0.0000   -0.0000    0.0000    0.0000    0.1916   -0.0048
    46 N2     *d1-       0.0000    0.0006   -0.0000   -0.0000    0.0000   -0.0000   -0.0000    0.0000    0.0033    1.0676
    47 N2     *d1-      -0.0000   -0.0003    0.0000    0.0000   -0.0000    0.0000    0.0000   -0.0000   -0.0017   -0.5406
    48 N2     *d0        0.0000    0.0000   -0.0000   -0.0000    0.0000    0.0000    0.0000   -0.0000    0.0003   -0.0275
    49 N2     *d0       -0.0000   -0.0000    0.0000    0.0000   -0.0000   -0.0000   -0.0000    0.0000   -0.0002    0.0139
    50 N2     *d1+      -0.0001    0.0000    0.0006   -0.0000   -0.0000   -0.0000   -0.0000   -0.0000    1.1060   -0.0044
    51 N2     *d1+       0.0000   -0.0000   -0.0003    0.0000    0.0000    0.0000    0.0000    0.0000   -0.5601    0.0022
    52 N2     *d2+       0.0000   -0.0001   -0.0000   -0.0004   -0.0000    0.0001    0.0000   -0.0000    0.0103    0.4754
    53 N2     *d2+      -0.0000    0.0000    0.0000    0.0002    0.0000   -0.0001   -0.0000    0.0000   -0.0052   -0.2407
    54 N2     *f3-       0.0006   -0.0214   -0.0003   -0.1864    0.0184   -0.8723   -0.0126    0.4491   -0.0000   -0.0000
    55 N2     *f2-       0.4870    0.0002   -0.0128    0.0000   -0.0378   -0.0000    0.0071    0.0001   -0.0002    0.0000
    56 N2     *f1-      -0.0014   -0.6406    0.0011    0.0279   -0.0001    0.0075    0.0000   -0.0029    0.0000    0.0007
    57 N2     *f0       -0.0001   -0.0041    0.0001    0.0015   -0.0000   -0.0005   -0.0000    0.0001    0.0000   -0.0000
    58 N2     *f1+       0.0699   -0.0011   -0.6289    0.0008    0.0167    0.0004    0.0090    0.0002    0.0007   -0.0000
    59 N2     *f2+      -0.0002    0.0976    0.0020    0.5370    0.0001   -0.1563   -0.0000    0.0003    0.0000    0.0002
    60 N2     *f3+       0.0311    0.0004    0.0165    0.0037    0.8904    0.0181   -0.4526   -0.0125   -0.0000    0.0000


      Orbital                51        52        53        54        55        56        57        58        59        60
      Energy             0.0000    0.0000    0.0000    0.0000    0.0000    0.0000    0.0000    0.0000    0.0000    0.0000
      Occ. No.           0.0000    0.0000    0.0000    0.0000    0.0000    0.0000    0.0000    0.0000    0.0000    0.0000

     1 N1     1s         0.0000    0.0000    0.0000    0.0000    0.0000    0.0000    0.0000    0.0000    0.6337   -2.2309
     2 N1     2s         0.0000    0.0000    0.0000    0.0000    0.0000    0.0000    0.0000    0.0000    1.3809   -4.8617
     3 N1     *s        -0.0000   -0.0000   -0.0000   -0.0000   -0.0000   -0.0000   -0.0000   -0.0000   -0.8987    3.1638
     4 N1     *s        -0.0000   -0.0000   -0.0000   -0.0000   -0.0000   -0.0000   -0.0000   -0.0000   -0.8663    3.0501
     5 N1     2px       -0.0000    0.0000    0.0001   -0.0007    0.0002    0.0000    0.0000    0.0000    0.0000   -0.0000
     6 N1     *px        0.0000   -0.0000   -0.0000    0.0006   -0.0002   -0.0000   -0.0000   -0.0000   -0.0000    0.0000
     7 N1     *px        0.0000   -0.0000   -0.0000    0.0002   -0.0001   -0.0000   -0.0000   -0.0000   -0.0000    0.0000
     8 N1     2py       -0.0000   -0.0000   -0.0008   -0.0001   -0.0000   -0.0000   -0.0000    0.0000   -0.0000    0.0000
     9 N1     *py        0.0000    0.0000    0.0006    0.0000    0.0000    0.0000    0.0000   -0.0000    0.0000   -0.0000
    10 N1     *py        0.0000    0.0000    0.0002    0.0000    0.0000    0.0000    0.0000   -0.0000    0.0000   -0.0000
    11 N1     2pz        0.0000    0.0000    0.0000    0.0000    0.0000   -0.0000   -0.0009    0.0000    0.0005   -0.0002
    12 N1     *pz       -0.0000   -0.0000   -0.0000   -0.0000   -0.0000   -0.0000    0.0007   -0.0000   -0.0005    0.0002
    13 N1     *pz       -0.0000    0.0000   -0.0000   -0.0000   -0.0000    0.0000    0.0002   -0.0000    0.0001    0.0001
    14 N1     *d2-      -0.0001    0.0420    0.0333   -0.3208   -1.1247   -0.0001   -0.0000   -0.0000    0.0000   -0.0000
    15 N1     *d2-       0.0001   -0.0213   -0.0169    0.1625    0.5695    0.0001    0.0000    0.0000   -0.0000    0.0000
    16 N1     *d1-       0.0337    0.0007    1.1642    0.1000    0.0059    0.0078    0.0091   -0.0098   -0.0000    0.0000
    17 N1     *d1-      -0.0171   -0.0004   -0.5895   -0.0506   -0.0030   -0.0039   -0.0046    0.0050    0.0000   -0.0000
    18 N1     *d0       -0.0002   -0.0000   -0.0093   -0.0006   -0.0001    0.0210    1.1706   -0.0051   -0.0000   -0.0000
    19 N1     *d0        0.0001    0.0000    0.0047    0.0003    0.0001   -0.0106   -0.5928    0.0026    0.0000    0.0000
    20 N1     *d1+       0.0007   -0.0290   -0.0945    1.1193   -0.3226   -0.0002   -0.0002   -0.0002    0.0000   -0.0000
    21 N1     *d1+      -0.0003    0.0147    0.0478   -0.5668    0.1634    0.0001    0.0001    0.0001   -0.0000    0.0000
    22 N1     *d2+       0.0061    0.0000    0.0097    0.0010   -0.0000    0.0002    0.0051    1.1708   -0.0000    0.0000
    23 N1     *d2+      -0.0031   -0.0000   -0.0049   -0.0005    0.0000   -0.0001   -0.0026   -0.5929    0.0000   -0.0000
    24 N1     *f3-       0.0000   -0.0000   -0.0000   -0.0000    0.0000   -0.0000    0.0000    0.0000    0.0000    0.0000
    25 N1     *f2-       0.0000   -0.0000   -0.0000    0.0002    0.0006    0.0000    0.0000    0.0000    0.0000    0.0000
    26 N1     *f1-      -0.0000   -0.0000   -0.0008   -0.0001   -0.0000   -0.0000   -0.0000    0.0000   -0.0000   -0.0000
    27 N1     *f0        0.0000    0.0000    0.0000    0.0000    0.0000   -0.0000   -0.0008    0.0000    0.0000   -0.0000
    28 N1     *f1+      -0.0000    0.0000    0.0001   -0.0007    0.0002    0.0000    0.0000    0.0000    0.0000    0.0000
    29 N1     *f2+      -0.0000   -0.0000   -0.0000   -0.0000    0.0000   -0.0000   -0.0000   -0.0006   -0.0000    0.0000
    30 N1     *f3+      -0.0000   -0.0000   -0.0000    0.0000    0.0000    0.0000   -0.0000   -0.0000   -0.0000   -0.0000
    31 N2     1s        -0.0000   -0.0000    0.0000    0.0000    0.0000   -0.0000    0.0000   -0.0000    2.2308    0.6337
    32 N2     2s        -0.0000   -0.0000    0.0000    0.0000    0.0000   -0.0000    0.0000   -0.0000    4.8616    1.3811
    33 N2     *s         0.0000    0.0000   -0.0000   -0.0000   -0.0000    0.0000   -0.0000    0.0000   -3.1637   -0.8987
    34 N2     *s         0.0000    0.0000   -0.0000   -0.0000   -0.0000    0.0000   -0.0000    0.0000   -3.0500   -0.8665
    35 N2     2px       -0.0000    0.0002   -0.0000    0.0000   -0.0000   -0.0000    0.0000    0.0000   -0.0000   -0.0000
    36 N2     *px        0.0000   -0.0002    0.0000   -0.0000    0.0000    0.0000    0.0000    0.0000    0.0000    0.0000
    37 N2     *px        0.0000   -0.0001    0.0000   -0.0000    0.0000    0.0000    0.0000    0.0000    0.0000    0.0000
    38 N2     2py       -0.0003   -0.0000    0.0000    0.0000    0.0000    0.0000   -0.0000    0.0000    0.0000    0.0000
    39 N2     *py        0.0002    0.0000   -0.0000   -0.0000   -0.0000   -0.0000   -0.0000    0.0000   -0.0000   -0.0000
    40 N2     *py        0.0001    0.0000   -0.0000   -0.0000   -0.0000   -0.0000   -0.0000    0.0000   -0.0000   -0.0000
    41 N2     2pz        0.0000    0.0000   -0.0000   -0.0000   -0.0000    0.0009   -0.0000    0.0000   -0.0004    0.0003
    42 N2     *pz       -0.0000   -0.0000    0.0000    0.0000    0.0000   -0.0007    0.0000   -0.0000    0.0004   -0.0004
    43 N2     *pz       -0.0000   -0.0000    0.0000    0.0000    0.0000   -0.0002   -0.0000    0.0000    0.0000    0.0001
    44 N2     *d2-      -0.0030    1.1071   -0.0019    0.0179    0.0393   -0.0001    0.0000   -0.0000   -0.0000   -0.0000
    45 N2     *d2-       0.0015   -0.5606    0.0009   -0.0090   -0.0199    0.0000   -0.0000    0.0000    0.0000    0.0000
    46 N2     *d1-      -0.4743   -0.0093    0.0724    0.0062    0.0003    0.0269   -0.0000   -0.0000   -0.0000   -0.0000
    47 N2     *d1-       0.2402    0.0047   -0.0367   -0.0031   -0.0001   -0.0136    0.0000    0.0000    0.0000    0.0000
    48 N2     *d0        0.0029    0.0004   -0.0092   -0.0006   -0.0002    1.1703   -0.0211    0.0000    0.0000    0.0000
    49 N2     *d0       -0.0015   -0.0002    0.0047    0.0003    0.0001   -0.5926    0.0107   -0.0000   -0.0000   -0.0000
    50 N2     *d1+      -0.0096    0.3774   -0.0059    0.0692   -0.0149   -0.0006    0.0000   -0.0000    0.0000    0.0000
    51 N2     *d1+       0.0048   -0.1911    0.0030   -0.0350    0.0075    0.0003   -0.0000    0.0000   -0.0000   -0.0000
    52 N2     *d2+       1.0699    0.0023   -0.0046   -0.0005   -0.0000    0.0085   -0.0001   -0.0064    0.0000    0.0000
    53 N2     *d2+      -0.5418   -0.0012    0.0023    0.0002    0.0000   -0.0043    0.0000    0.0032   -0.0000   -0.0000
    54 N2     *f3-      -0.0000    0.0000    0.0000    0.0000    0.0000    0.0000    0.0000    0.0000    0.0000    0.0000
    55 N2     *f2-      -0.0000    0.0006   -0.0000    0.0000    0.0000   -0.0000    0.0000   -0.0000   -0.0000   -0.0000
    56 N2     *f1-      -0.0003   -0.0000    0.0000    0.0000    0.0000    0.0000   -0.0000    0.0000   -0.0000   -0.0000
    57 N2     *f0        0.0000    0.0000   -0.0000   -0.0000   -0.0000    0.0008   -0.0000    0.0000   -0.0000    0.0000
    58 N2     *f1+      -0.0000    0.0002   -0.0000    0.0000   -0.0000   -0.0000    0.0000    0.0000    0.0000    0.0000
    59 N2     *f2+       0.0005    0.0000   -0.0000   -0.0000   -0.0000    0.0000   -0.0000   -0.0000    0.0000    0.0000
    60 N2     *f3+       0.0000    0.0000    0.0000   -0.0000    0.0000    0.0000    0.0000   -0.0000   -0.0000   -0.0000
--

      Von Neumann Entropy (Root   1) =  3.00000


      Mulliken population analysis for root number:  1
      -----------------------------------------------


++    Molecular charges:
      ------------------

      Mulliken charges per centre and basis function type
      ---------------------------------------------------

                N1      N2    
      1s       2.0015  2.0015
      2s       2.0635  2.0636
      2px      0.9109  0.9109
      2pz      0.9106  0.9106
      2py      0.9109  0.9109
      *s      -0.0651 -0.0651
      *px      0.0891  0.0891
      *pz      0.0894  0.0894
      *py      0.0891  0.0891
      *d2+     0.0000  0.0000
      *d1+     0.0000  0.0000
      *d0      0.0000  0.0000
      *d1-     0.0000  0.0000
      *d2-     0.0000  0.0000
      *f3+     0.0000  0.0000
      *f2+     0.0000  0.0000
      *f1+     0.0000  0.0000
      *f0      0.0000  0.0000
      *f1-     0.0000  0.0000
      *f2-     0.0000  0.0000
      *f3-     0.0000  0.0000
      Total    7.0000  7.0000

      N-E      0.0000 -0.0000

      Total electronic charge=   14.000000

      Total            charge=   -0.000000
--



      Expectation values of various properties for root number:  1
      -----------------------------------------------------------

      Properties not supported for DMRGSCF 

++    Molecular properties:
      ---------------------

      Charge (e):
                      =   -0.0000
      Dipole Moment (Debye):
      Origin of the operator (Ang)=    0.0000    0.0000    0.0000
                   X=  2.8044E-09               Y= -4.0596E-07               Z= -2.6490E-06           Total=  2.6799E-06
      Quadrupole Moment (Debye*Ang):
      Origin of the operator (Ang)=    0.0000    0.0000    3.0000
                  XX= -1.2110E+01              XY= -1.1709E-11              XZ= -1.6472E-07              YY= -1.2110E+01
                  YZ=  7.5914E-06              ZZ= -1.2044E+01
      In traceless form (Debye*Ang)
                  XX= -3.3320E-02              XY= -1.7564E-11              XZ= -2.4708E-07              YY= -3.3320E-02
                  YZ=  1.1387E-05              ZZ=  6.6640E-02
--


      Input file to MOLDEN was generated!

      Average orbitals are written to the RASORB file
      Natural orbitals for root   1 are written to the RASORB.1 file
      Spin density orbitals for root   1 are written to the SPDORB.1 file

--- Stop Module: dmrgscf at Tue Apr  9 00:43:55 2024 /rc=_RC_ALL_IS_WELL_ ---
*** files: n2.GssOrb n2.guessorb.h5 n2.rasscf.molden n2.guessorb.molden n2.scf.molden n2.RasOrb n2.RasOrb.1 n2.dmrgscf.h5 n2.ScfOrb n2.scf.h5 n2.SpdOrb.1 xmldump
    saved to directory /public/home/xzzeng/work/HQC/N2/cc-pvtz/NO/PES/entropy/6.0/results/work_dir/n2/dmrg
--- Module dmrgscf spent 4 seconds ---

.##################.
.# Happy landing! #.
.##################.

    Timing: Wall=4.74 User=3.14 System=0.21
