[Molden Format]
[N_Atoms]
                    2
[Atoms] (AU)
N1          1      7           0.00000000      0.00000000      0.00000000
N2          2      7           0.00000000      0.00000000     11.33835675
[5D]
[7F]
[Charge] (Mulliken)
  -9.0155809298053668E-006
   9.0155808374348112E-006
[GTO] (AU)
   1
   s  10
  1.142000000E+04  5.229996559E-04
  1.712000000E+03  4.044997339E-03
  3.893000000E+02  2.077498633E-02
  1.100000000E+02  8.072694689E-02
  3.557000000E+01  2.330738467E-01
  1.254000000E+01  4.335007148E-01
  4.644000000E+00  3.474717714E-01
  1.293000000E+00  4.126197285E-02
  5.118000000E-01 -8.507994403E-03
  1.787000000E-01  2.383998432E-03
   s  10
  1.142000000E+04 -1.149999544E-04
  1.712000000E+03 -8.949996452E-04
  3.893000000E+02 -4.623998167E-03
  1.100000000E+02 -1.852799265E-02
  3.557000000E+01 -5.733897727E-02
  1.254000000E+01 -1.320759476E-01
  4.644000000E+00 -1.725099316E-01
  1.293000000E+00  1.518139398E-01
  5.118000000E-01  5.999437621E-01
  1.787000000E-01  3.874618464E-01
   s   1
  1.293000000E+00  1.000000000E+00
   s   1
  1.787000000E-01  1.000000000E+00
   p   5
  2.663000000E+01  1.467000345E-02
  5.948000000E+00  9.176402155E-02
  1.742000000E+00  2.986830701E-01
  5.550000000E-01  4.984871171E-01
  1.725000000E-01  3.370230791E-01
   p   1
  5.550000000E-01  1.000000000E+00
   p   1
  1.725000000E-01  1.000000000E+00
   d   1
  1.654000000E+00  1.000000000E+00
   d   1
  4.690000000E-01  1.000000000E+00
   f   1
  1.093000000E+00  1.000000000E+00
 
   2
   s  10
  1.142000000E+04  5.229996559E-04
  1.712000000E+03  4.044997339E-03
  3.893000000E+02  2.077498633E-02
  1.100000000E+02  8.072694689E-02
  3.557000000E+01  2.330738467E-01
  1.254000000E+01  4.335007148E-01
  4.644000000E+00  3.474717714E-01
  1.293000000E+00  4.126197285E-02
  5.118000000E-01 -8.507994403E-03
  1.787000000E-01  2.383998432E-03
   s  10
  1.142000000E+04 -1.149999544E-04
  1.712000000E+03 -8.949996452E-04
  3.893000000E+02 -4.623998167E-03
  1.100000000E+02 -1.852799265E-02
  3.557000000E+01 -5.733897727E-02
  1.254000000E+01 -1.320759476E-01
  4.644000000E+00 -1.725099316E-01
  1.293000000E+00  1.518139398E-01
  5.118000000E-01  5.999437621E-01
  1.787000000E-01  3.874618464E-01
   s   1
  1.293000000E+00  1.000000000E+00
   s   1
  1.787000000E-01  1.000000000E+00
   p   5
  2.663000000E+01  1.467000345E-02
  5.948000000E+00  9.176402155E-02
  1.742000000E+00  2.986830701E-01
  5.550000000E-01  4.984871171E-01
  1.725000000E-01  3.370230791E-01
   p   1
  5.550000000E-01  1.000000000E+00
   p   1
  1.725000000E-01  1.000000000E+00
   d   1
  1.654000000E+00  1.000000000E+00
   d   1
  4.690000000E-01  1.000000000E+00
   f   1
  1.093000000E+00  1.000000000E+00
 
[MO]
Sym=     1a  
Ene=   -15.8000
Spin= Alpha
Occup=    2.00000
   1         0.27281425
   2         0.00009204
   3        -0.00036233
   4        -0.00004024
   5        -0.00000000
   6         0.00000000
   7         0.00004993
   8        -0.00000000
   9         0.00000000
  10        -0.00002557
  11        -0.00000000
  12         0.00000000
  13        -0.00000568
  14        -0.00000015
  15         0.00000000
  16         0.00000000
  17         0.00000000
  18        -0.00000000
  19         0.00000119
  20         0.00000000
  21         0.00000000
  22         0.00000000
  23        -0.00000000
  24         0.00000009
  25         0.00000000
  26        -0.00000000
  27         0.00000000
  28         0.00000000
  29        -0.00000000
  30        -0.00000000
  31         0.96286378
  32         0.00035570
  33        -0.00129190
  34        -0.00018295
  35         0.00000000
  36         0.00000000
  37        -0.00012975
  38        -0.00000000
  39        -0.00000000
  40         0.00008789
  41        -0.00000000
  42        -0.00000000
  43         0.00003129
  44        -0.00000072
  45         0.00000000
  46         0.00000000
  47        -0.00000000
  48         0.00000000
  49         0.00000031
  50         0.00000000
  51         0.00000000
  52        -0.00000000
  53         0.00000000
  54        -0.00000006
  55        -0.00000000
  56        -0.00000000
  57         0.00000000
  58         0.00000000
  59        -0.00000000
  60        -0.00000000
Sym=     2a  
Ene=   -15.8000
Spin= Alpha
Occup=    2.00000
   1        -0.96285749
   2        -0.00033943
   3         0.00128276
   4         0.00017511
   5        -0.00000000
   6         0.00000000
   7        -0.00012155
   8         0.00000000
   9        -0.00000000
  10         0.00008742
  11         0.00000000
  12        -0.00000000
  13         0.00003323
  14         0.00000031
  15        -0.00000000
  16        -0.00000000
  17        -0.00000000
  18         0.00000000
  19         0.00000056
  20        -0.00000000
  21        -0.00000000
  22        -0.00000000
  23         0.00000000
  24        -0.00000001
  25        -0.00000000
  26        -0.00000000
  27        -0.00000000
  28        -0.00000000
  29         0.00000000
  30         0.00000000
  31         0.27282030
  32         0.00010492
  33        -0.00036717
  34        -0.00006121
  35         0.00000000
  36         0.00000000
  37        -0.00002127
  38        -0.00000000
  39        -0.00000000
  40         0.00002410
  41        -0.00000000
  42         0.00000000
  43         0.00001260
  44        -0.00000014
  45         0.00000000
  46         0.00000000
  47        -0.00000000
  48         0.00000000
  49        -0.00000126
  50         0.00000000
  51         0.00000000
  52        -0.00000000
  53         0.00000000
  54         0.00000007
  55        -0.00000000
  56        -0.00000000
  57         0.00000000
  58         0.00000000
  59        -0.00000000
  60        -0.00000000
Sym=     3a  
Ene=    -1.0233
Spin= Alpha
Occup=    2.00000
   1         0.00126128
   2         0.72769877
   3         0.00740998
   4        -0.02988458
   5         0.00000000
   6         0.00000000
   7         0.00113197
   8        -0.00000000
   9        -0.00000000
  10        -0.00003548
  11         0.00000000
  12        -0.00000000
  13         0.00078426
  14        -0.00000620
  15         0.00000000
  16         0.00000000
  17         0.00000000
  18        -0.00000000
  19         0.00009780
  20         0.00000000
  21         0.00000001
  22         0.00000001
  23        -0.00000000
  24         0.00000367
  25        -0.00000000
  26        -0.00000000
  27         0.00000000
  28         0.00000000
  29         0.00000000
  30         0.00000000
  31         0.00127505
  32         0.73024098
  33         0.00742517
  34        -0.03001269
  35         0.00000000
  36         0.00000000
  37        -0.00111688
  38         0.00000000
  39         0.00000000
  40         0.00003459
  41         0.00000000
  42         0.00000000
  43        -0.00078251
  44        -0.00000663
  45        -0.00000000
  46         0.00000000
  47        -0.00000000
  48         0.00000000
  49         0.00009769
  50         0.00000000
  51         0.00000001
  52        -0.00000001
  53         0.00000000
  54        -0.00000366
  55         0.00000000
  56         0.00000000
  57        -0.00000000
  58         0.00000000
  59         0.00000000
  60         0.00000000
Sym=     4a  
Ene=    -1.0216
Spin= Alpha
Occup=    2.00000
   1        -0.00160466
   2        -0.73173953
   3        -0.00731202
   4         0.03161994
   5        -0.00000000
   6         0.00000003
   7         0.00452269
   8         0.00000000
   9        -0.00000000
  10        -0.00023873
  11        -0.00000000
  12         0.00000000
  13         0.00037537
  14         0.00000090
  15        -0.00000000
  16        -0.00000000
  17        -0.00000000
  18         0.00000000
  19         0.00008906
  20        -0.00000000
  21        -0.00000001
  22        -0.00000001
  23         0.00000000
  24         0.00000256
  25        -0.00000000
  26        -0.00000000
  27        -0.00000000
  28         0.00000000
  29        -0.00000000
  30        -0.00000000
  31         0.00160848
  32         0.72925013
  33         0.00727646
  34        -0.03153561
  35        -0.00000000
  36         0.00000003
  37         0.00452657
  38         0.00000000
  39        -0.00000000
  40        -0.00023887
  41        -0.00000000
  42         0.00000000
  43         0.00037865
  44        -0.00000130
  45        -0.00000000
  46         0.00000000
  47        -0.00000000
  48         0.00000000
  49        -0.00008919
  50         0.00000000
  51         0.00000000
  52        -0.00000001
  53         0.00000000
  54         0.00000257
  55        -0.00000000
  56        -0.00000000
  57        -0.00000000
  58        -0.00000000
  59        -0.00000000
  60         0.00000000
Sym=     5a  
Ene=    -0.2933
Spin= Alpha
Occup=    2.00000
   1         0.00137389
   2         0.00834304
   3        -0.00034593
   4        -0.00715129
   5        -0.00000003
   6        -0.00000313
   7        -0.64637859
   8         0.00000000
   9         0.00000008
  10         0.01817149
  11        -0.00000000
  12        -0.00000035
  13        -0.09963368
  14        -0.00005102
  15        -0.00000000
  16        -0.00000000
  17        -0.00000000
  18         0.00000000
  19        -0.00183690
  20         0.00000000
  21         0.00000000
  22         0.00000000
  23        -0.00000000
  24        -0.00004621
  25         0.00000000
  26         0.00000001
  27         0.00000001
  28        -0.00000000
  29        -0.00000000
  30        -0.00000000
  31         0.00137380
  32         0.00834162
  33        -0.00034609
  34        -0.00715019
  35         0.00000003
  36         0.00000237
  37         0.64637791
  38        -0.00000000
  39        -0.00000006
  40        -0.01816434
  41         0.00000000
  42         0.00000024
  43         0.09964246
  44        -0.00005111
  45         0.00000000
  46        -0.00000000
  47         0.00000000
  48        -0.00000000
  49        -0.00183696
  50         0.00000000
  51         0.00000001
  52        -0.00000000
  53         0.00000000
  54         0.00004613
  55        -0.00000000
  56        -0.00000001
  57         0.00000001
  58        -0.00000000
  59        -0.00000000
  60        -0.00000000
Sym=     6a  
Ene=    -0.2920
Spin= Alpha
Occup=    2.00000
   1         0.00000000
   2         0.00000007
   3        -0.00000000
   4        -0.00000002
   5        -0.00297882
   6         0.64708080
   7         0.00000237
   8         0.00008128
   9        -0.01765710
  10        -0.00000006
  11        -0.00045211
  12         0.09821093
  13         0.00000023
  14         0.00000000
  15        -0.00000024
  16         0.00005261
  17         0.00000000
  18        -0.00000000
  19        -0.00000001
  20        -0.00000689
  21         0.00149727
  22         0.00000000
  23        -0.00000000
  24         0.00000000
  25        -0.00000017
  26         0.00003606
  27         0.00000001
  28        -0.00000000
  29         0.00000000
  30        -0.00000001
  31        -0.00000000
  32        -0.00000006
  33         0.00000000
  34         0.00000001
  35        -0.00297874
  36         0.64708316
  37         0.00000312
  38         0.00008129
  39        -0.01765879
  40        -0.00000008
  41        -0.00045209
  42         0.09820992
  43         0.00000035
  44        -0.00000000
  45         0.00000024
  46        -0.00005269
  47        -0.00000000
  48         0.00000000
  49         0.00000000
  50         0.00000689
  51        -0.00149735
  52        -0.00000000
  53         0.00000000
  54         0.00000000
  55        -0.00000017
  56         0.00003608
  57         0.00000001
  58        -0.00000000
  59        -0.00000000
  60         0.00000001
Sym=     7a  
Ene=    -0.2920
Spin= Alpha
Occup=    2.00000
   1        -0.00000000
   2         0.00000000
   3         0.00000000
   4         0.00000000
   5        -0.64708996
   6        -0.00297877
   7        -0.00000004
   8         0.01765734
   9         0.00008128
  10         0.00000000
  11        -0.09821192
  12        -0.00045210
  13        -0.00000000
  14        -0.00000000
  15        -0.00005261
  16        -0.00000024
  17         0.00000000
  18         0.00000000
  19         0.00000000
  20        -0.00149725
  21        -0.00000689
  22         0.00000000
  23         0.00000000
  24        -0.00000000
  25        -0.00003607
  26        -0.00000017
  27         0.00000000
  28         0.00000001
  29         0.00000001
  30         0.00000000
  31         0.00000000
  32         0.00000000
  33        -0.00000000
  34        -0.00000000
  35        -0.64707400
  36        -0.00297879
  37        -0.00000004
  38         0.01765855
  39         0.00008129
  40         0.00000000
  41        -0.09820892
  42        -0.00045210
  43        -0.00000000
  44         0.00000000
  45         0.00005269
  46         0.00000024
  47        -0.00000000
  48        -0.00000000
  49        -0.00000000
  50         0.00149736
  51         0.00000689
  52        -0.00000000
  53        -0.00000000
  54        -0.00000000
  55        -0.00003608
  56        -0.00000017
  57         0.00000000
  58         0.00000001
  59        -0.00000002
  60        -0.00000000
Sym=     8a  
Ene=    -0.2046
Spin= Alpha
Occup=    0.00000
   1        -0.00000001
   2        -0.00000007
   3         0.00000000
   4         0.00000006
   5         0.00534018
   6        -0.64685831
   7         0.00000021
   8        -0.00014705
   9         0.01781279
  10        -0.00000013
  11         0.00081439
  12        -0.09864804
  13         0.00000283
  14        -0.00000000
  15         0.00000057
  16        -0.00006867
  17        -0.00000000
  18        -0.00000000
  19         0.00000001
  20        -0.00000952
  21         0.00115307
  22        -0.00000000
  23        -0.00000000
  24        -0.00000010
  25        -0.00000025
  26         0.00002990
  27        -0.00000013
  28        -0.00000000
  29        -0.00000000
  30         0.00000003
  31        -0.00000001
  32        -0.00000006
  33         0.00000000
  34         0.00000006
  35        -0.00534037
  36         0.64686287
  37        -0.00000117
  38         0.00014709
  39        -0.01781654
  40         0.00000015
  41        -0.00081442
  42         0.09864683
  43        -0.00000298
  44        -0.00000000
  45         0.00000057
  46        -0.00006867
  47        -0.00000000
  48        -0.00000000
  49         0.00000001
  50        -0.00000952
  51         0.00115309
  52        -0.00000000
  53         0.00000000
  54         0.00000010
  55         0.00000025
  56        -0.00003001
  57         0.00000013
  58         0.00000000
  59        -0.00000000
  60         0.00000002
Sym=     9a  
Ene=    -0.2046
Spin= Alpha
Occup=    0.00000
   1         0.00000000
   2         0.00000000
   3        -0.00000000
   4        -0.00000000
   5         0.64685009
   6         0.00534026
   7        -0.00000008
   8        -0.01781253
   9        -0.00014706
  10         0.00000000
  11         0.09864586
  12         0.00081441
  13         0.00000002
  14        -0.00000000
  15         0.00006867
  16         0.00000057
  17         0.00000000
  18        -0.00000000
  19        -0.00000000
  20        -0.00115309
  21        -0.00000952
  22         0.00000000
  23        -0.00000000
  24        -0.00000000
  25        -0.00002988
  26        -0.00000025
  27         0.00000000
  28        -0.00000013
  29        -0.00000002
  30        -0.00000000
  31         0.00000000
  32         0.00000000
  33        -0.00000000
  34        -0.00000000
  35        -0.64687109
  36        -0.00534029
  37         0.00000007
  38         0.01781681
  39         0.00014709
  40        -0.00000000
  41        -0.09864901
  42        -0.00081440
  43        -0.00000002
  44        -0.00000000
  45         0.00006867
  46         0.00000057
  47         0.00000000
  48        -0.00000000
  49        -0.00000000
  50        -0.00115307
  51        -0.00000952
  52        -0.00000000
  53        -0.00000000
  54         0.00000000
  55         0.00003003
  56         0.00000025
  57        -0.00000000
  58         0.00000013
  59        -0.00000004
  60        -0.00000000
Sym=    10a  
Ene=    -0.2029
Spin= Alpha
Occup=    0.00000
   1         0.00088267
   2         0.00859992
   3        -0.00035780
   4        -0.00422009
   5        -0.00000006
   6        -0.00000117
   7         0.64712501
   8        -0.00000000
   9         0.00000015
  10        -0.01741329
  11         0.00000005
  12        -0.00000297
  13         0.09790152
  14         0.00008993
  15         0.00000000
  16        -0.00000000
  17        -0.00000000
  18         0.00000000
  19        -0.00141313
  20         0.00000000
  21        -0.00000001
  22         0.00000000
  23        -0.00000000
  24        -0.00003868
  25         0.00000000
  26        -0.00000017
  27        -0.00000002
  28         0.00000000
  29         0.00000000
  30         0.00000000
  31        -0.00088289
  32        -0.00860053
  33         0.00035799
  34         0.00422084
  35        -0.00000007
  36        -0.00000021
  37         0.64710604
  38        -0.00000000
  39         0.00000012
  40        -0.01740694
  41         0.00000005
  42        -0.00000282
  43         0.09790134
  44        -0.00008992
  45        -0.00000000
  46         0.00000000
  47        -0.00000000
  48         0.00000000
  49         0.00141322
  50        -0.00000000
  51         0.00000001
  52         0.00000000
  53        -0.00000000
  54        -0.00003894
  55         0.00000000
  56        -0.00000017
  57         0.00000002
  58        -0.00000000
  59         0.00000000
  60         0.00000000
Sym=    11a  
Ene=     0.6191
Spin= Alpha
Occup=    0.00000
   1         0.00095992
   2         0.00492796
   3        -0.00033229
   4        -0.00485320
   5        -0.00000327
   6         0.00016226
   7         0.49787554
   8        -0.00000229
   9         0.00011378
  10         0.34906750
  11         0.00000672
  12        -0.00033340
  13        -1.01569191
  14         0.00006178
  15        -0.00000000
  16         0.00000001
  17        -0.00000000
  18         0.00000000
  19         0.00003330
  20        -0.00000000
  21         0.00000005
  22         0.00000000
  23        -0.00000000
  24        -0.00000025
  25         0.00000000
  26        -0.00000010
  27        -0.00000001
  28         0.00000000
  29         0.00000000
  30         0.00000000
  31         0.00095587
  32         0.00490805
  33        -0.00033119
  34        -0.00483199
  35         0.00000328
  36        -0.00016260
  37        -0.49823145
  38         0.00000230
  39        -0.00011402
  40        -0.34932833
  41        -0.00000674
  42         0.00033410
  43         1.01643185
  44         0.00006180
  45        -0.00000000
  46         0.00000001
  47         0.00000000
  48        -0.00000000
  49         0.00003356
  50        -0.00000000
  51         0.00000005
  52        -0.00000000
  53         0.00000000
  54         0.00000048
  55        -0.00000000
  56         0.00000010
  57        -0.00000001
  58         0.00000000
  59         0.00000000
  60        -0.00000000
Sym=    12a  
Ene=     0.6199
Spin= Alpha
Occup=    0.00000
   1         0.00000123
   2         0.00000588
   3        -0.00000036
   4        -0.00000635
   5        -0.00011857
   6        -0.48974289
   7        -0.00012898
   8        -0.00008314
   9        -0.34340776
  10        -0.00009043
  11         0.00024222
  12         1.00052203
  13         0.00026562
  14        -0.00000001
  15        -0.00000001
  16        -0.00004943
  17        -0.00000000
  18        -0.00000000
  19        -0.00000007
  20        -0.00000002
  21        -0.00010189
  22        -0.00000000
  23        -0.00000000
  24        -0.00000006
  25        -0.00000000
  26        -0.00000078
  27        -0.00000008
  28        -0.00000000
  29         0.00000000
  30        -0.00000000
  31        -0.00000124
  32        -0.00000592
  33         0.00000037
  34         0.00000638
  35        -0.00012271
  36        -0.50529529
  37        -0.00012346
  38        -0.00008604
  39        -0.35429833
  40        -0.00008654
  41         0.00025068
  42         1.03226666
  43         0.00025433
  44         0.00000001
  45         0.00000001
  46         0.00005093
  47         0.00000000
  48         0.00000000
  49         0.00000007
  50         0.00000003
  51         0.00010595
  52         0.00000000
  53         0.00000000
  54        -0.00000007
  55        -0.00000000
  56        -0.00000080
  57        -0.00000008
  58        -0.00000000
  59        -0.00000000
  60        -0.00000002
Sym=    13a  
Ene=     0.6199
Spin= Alpha
Occup=    0.00000
   1        -0.00000003
   2        -0.00000012
   3         0.00000001
   4         0.00000013
   5        -0.49007646
   6         0.00011902
   7         0.00000263
   8        -0.34364151
   9         0.00008346
  10         0.00000185
  11         1.00120377
  12        -0.00024316
  13        -0.00000542
  14         0.00000000
  15        -0.00004947
  16         0.00000001
  17        -0.00000000
  18         0.00000000
  19         0.00000000
  20        -0.00010198
  21         0.00000002
  22        -0.00000000
  23         0.00000000
  24         0.00000000
  25        -0.00000079
  26         0.00000000
  27        -0.00000000
  28         0.00000008
  29         0.00000003
  30        -0.00000000
  31         0.00000003
  32         0.00000012
  33        -0.00000001
  34        -0.00000013
  35        -0.50497179
  36         0.00012226
  37         0.00000252
  38        -0.35407165
  39         0.00008573
  40         0.00000177
  41         1.03160552
  42        -0.00024977
  43        -0.00000519
  44        -0.00000000
  45         0.00005090
  46        -0.00000001
  47         0.00000000
  48        -0.00000000
  49        -0.00000000
  50         0.00010587
  51        -0.00000003
  52         0.00000000
  53        -0.00000000
  54         0.00000000
  55        -0.00000079
  56         0.00000000
  57        -0.00000000
  58         0.00000008
  59        -0.00000002
  60         0.00000000
Sym=    14a  
Ene=     0.6200
Spin= Alpha
Occup=    0.00000
   1        -0.00000001
   2        -0.00000003
   3         0.00000000
   4         0.00000003
   5        -0.50528912
   6         0.00010516
   7        -0.00000327
   8        -0.35403385
   9         0.00007368
  10        -0.00000231
  11         1.03159369
  12        -0.00021469
  13         0.00000669
  14        -0.00000000
  15        -0.00004905
  16         0.00000001
  17        -0.00000000
  18         0.00000000
  19        -0.00000000
  20        -0.00013018
  21         0.00000003
  22        -0.00000000
  23         0.00000000
  24         0.00000000
  25        -0.00000168
  26         0.00000000
  27        -0.00000000
  28         0.00000008
  29         0.00000003
  30        -0.00000000
  31        -0.00000001
  32        -0.00000003
  33         0.00000000
  34         0.00000003
  35         0.49041120
  36        -0.00010245
  37         0.00000337
  38         0.34359598
  39        -0.00007178
  40         0.00000238
  41        -1.00119261
  42         0.00020916
  43        -0.00000689
  44        -0.00000000
  45        -0.00004753
  46         0.00000001
  47        -0.00000000
  48         0.00000000
  49        -0.00000000
  50        -0.00012713
  51         0.00000003
  52        -0.00000000
  53         0.00000000
  54        -0.00000000
  55         0.00000160
  56        -0.00000000
  57         0.00000000
  58        -0.00000008
  59         0.00000002
  60        -0.00000000
Sym=    15a  
Ene=     0.6200
Spin= Alpha
Occup=    0.00000
   1        -0.00000029
   2        -0.00000152
   3         0.00000010
   4         0.00000149
   5         0.00010562
   6         0.50561270
   7        -0.00016011
   8         0.00007400
   9         0.35426092
  10        -0.00011321
  11        -0.00021562
  12        -1.03225464
  13         0.00032761
  14        -0.00000002
  15         0.00000001
  16         0.00004908
  17         0.00000000
  18         0.00000000
  19        -0.00000001
  20         0.00000003
  21         0.00013025
  22         0.00000000
  23         0.00000000
  24         0.00000006
  25         0.00000000
  26         0.00000167
  27         0.00000008
  28         0.00000000
  29        -0.00000000
  30         0.00000000
  31        -0.00000024
  32        -0.00000126
  33         0.00000009
  34         0.00000121
  35        -0.00010198
  36        -0.49007752
  37         0.00016547
  38        -0.00007145
  39        -0.34336183
  40         0.00011697
  41         0.00020820
  42         1.00051102
  43        -0.00033863
  44        -0.00000002
  45         0.00000001
  46         0.00004750
  47         0.00000000
  48         0.00000000
  49        -0.00000002
  50         0.00000003
  51         0.00012705
  52         0.00000000
  53         0.00000000
  54        -0.00000006
  55        -0.00000000
  56        -0.00000161
  57        -0.00000008
  58        -0.00000000
  59        -0.00000000
  60        -0.00000002
Sym=    16a  
Ene=     0.6210
Spin= Alpha
Occup=    0.00000
   1         0.00487143
   2         0.02325564
   3        -0.00144001
   4        -0.02513565
   5        -0.00000256
   6         0.00012719
   7        -0.49793467
   8        -0.00000182
   9         0.00009014
  10        -0.34870146
  11         0.00000526
  12        -0.00026086
  13         1.01715452
  14        -0.00005137
  15        -0.00000000
  16         0.00000001
  17        -0.00000000
  18         0.00000000
  19        -0.00025175
  20        -0.00000000
  21         0.00000004
  22         0.00000000
  23        -0.00000000
  24        -0.00000298
  25        -0.00000000
  26         0.00000010
  27         0.00000001
  28        -0.00000000
  29         0.00000000
  30         0.00000000
  31        -0.00487666
  32        -0.02328034
  33         0.00144202
  34         0.02516120
  35        -0.00000254
  36         0.00012589
  37        -0.49756769
  38        -0.00000180
  39         0.00008923
  40        -0.34845362
  41         0.00000521
  42        -0.00025821
  43         1.01641220
  44         0.00005133
  45         0.00000000
  46        -0.00000001
  47        -0.00000000
  48         0.00000000
  49         0.00025177
  50         0.00000000
  51        -0.00000004
  52         0.00000000
  53        -0.00000000
  54        -0.00000275
  55        -0.00000000
  56         0.00000010
  57        -0.00000001
  58         0.00000000
  59        -0.00000000
  60         0.00000000
Sym=    17a  
Ene=     0.6703
Spin= Alpha
Occup=    0.00000
   1        -0.34986772
   2        -1.69768325
   3         0.09787076
   4         1.82850935
   5        -0.00000000
   6         0.00000007
   7        -0.00097307
   8        -0.00000000
   9         0.00000004
  10         0.00095281
  11         0.00000000
  12        -0.00000013
  13        -0.00331414
  14        -0.00000723
  15        -0.00000000
  16         0.00000020
  17         0.00000003
  18        -0.00000000
  19         0.00030272
  20         0.00000001
  21        -0.00000054
  22        -0.00000009
  23         0.00000000
  24         0.00000352
  25        -0.00000000
  26         0.00000000
  27        -0.00000000
  28        -0.00000000
  29         0.00000000
  30        -0.00000000
  31        -0.35865939
  32        -1.74024826
  33         0.10036520
  34         1.87434529
  35         0.00000000
  36        -0.00000007
  37         0.00111655
  38         0.00000000
  39        -0.00000005
  40        -0.00083338
  41        -0.00000000
  42         0.00000014
  43         0.00295327
  44        -0.00000561
  45        -0.00000000
  46         0.00000020
  47        -0.00000003
  48         0.00000000
  49         0.00029522
  50         0.00000001
  51        -0.00000055
  52         0.00000009
  53        -0.00000000
  54        -0.00000344
  55         0.00000000
  56        -0.00000000
  57         0.00000000
  58        -0.00000000
  59        -0.00000000
  60        -0.00000000
Sym=    18a  
Ene=     0.6715
Spin= Alpha
Occup=    0.00000
   1        -0.35854434
   2        -1.73933262
   3         0.10023704
   4         1.87409507
   5         0.00000000
   6         0.00000002
   7        -0.00558748
   8        -0.00000000
   9         0.00000002
  10        -0.00465309
  11         0.00000000
  12        -0.00000003
  13         0.01407344
  14         0.00000611
  15        -0.00000000
  16         0.00000020
  17         0.00000003
  18        -0.00000000
  19        -0.00026373
  20         0.00000001
  21        -0.00000056
  22        -0.00000009
  23         0.00000000
  24        -0.00000344
  25        -0.00000000
  26         0.00000000
  27        -0.00000000
  28        -0.00000000
  29         0.00000000
  30        -0.00000000
  31         0.34981143
  32         1.69687532
  33        -0.09782983
  34        -1.82833937
  35         0.00000000
  36         0.00000002
  37        -0.00556187
  38        -0.00000000
  39         0.00000002
  40        -0.00467591
  41        -0.00000000
  42        -0.00000004
  43         0.01415262
  44        -0.00000772
  45         0.00000000
  46        -0.00000020
  47         0.00000003
  48        -0.00000000
  49         0.00027203
  50        -0.00000001
  51         0.00000054
  52        -0.00000009
  53         0.00000000
  54        -0.00000352
  55        -0.00000000
  56         0.00000000
  57        -0.00000000
  58         0.00000000
  59        -0.00000000
  60        -0.00000000
Sym=    19a  
Ene=     1.2215
Spin= Alpha
Occup=    0.00000
   1         0.00014549
   2         0.00063257
   3        -0.00003496
   4        -0.00078371
   5         0.00000000
   6        -0.00000015
   7        -0.00174990
   8        -0.00000000