   This run of MOLCAS is using the pymolcas driver

                             OPE
                             OPE          NMOL  CASOP  ENMOLC A   SO
                 OPE        NMOLC        AS  OP EN  MO LC     AS  OP
                OPENM       OL CA        SO  PE NM  OL CA     SOP EN
                OP EN      MO   LC       AS  OP ENMOL  CASO   PENMOL
                OP  EN     MO   LC       AS  OP EN     MO     LC ASO
               OP   E  NMOL  C  AS       OP  EN MO     LC     AS  OP
               OP  E   NMO   LC AS        OPEN  MO     LCASOP EN   M
               O  PEN   MO  LCA  SO
            OPE   NMO   L   CAS    OP
        OPENMOL  CASOP     ENMOL   CASOPE
     OPENMOLCA   SOPENMOLCASOPEN   MOLCASOPE
    OPENMOLCAS   OP           EN   MOL    CAS
    OPENMOLCAS       OP  ENM        O     LCA
    OPENMOLCAS    OPEN  MOLCASO     P  E  NMO
    OPENMOLCAS     OP               E  N  MOL
    OPENMOLCA   SO           PENM   O  L  CAS    OPEN    MO    LCAS
    OPENMOLCA   SOP           ENM   O  L  CAS   OP  EN  MOLC  AS   O
    OPENMOLCA   SOPE           NM      O  LCA   S      OP  EN MO
    OPENMOLC                AS         O  PEN   M      OL  CA  SOPE
    OPENMO        LCASOPE  NMOL        C  ASO   P      ENMOLC     AS
    OPE     NMO      LCA  SO     P     E   NM   OL  CA SO  PE N   MO
          OPENMOLCA            SOPE   NMO        LCAS  O    P  ENMO
     OPENMOLCASOPENMOLCASOPENMOLCASOPENMOLCA
        OPENMOLCASOPENMOLCASOPENMOLCASOPE
            OPENMOLCASOPENMOLCASOPENM
               OPENMOLCASOPENMOLCA        version: o822a959167d23c ?
                   OPENMOLCASO
                       OPE                tag:

 OpenMolcas is free software; you can redistribute it and/or modify it
 under the terms of the GNU Lesser General Public License version 2.1.
 OpenMolcas is distributed in the hope that it will be useful, but it
 is provided "as is" and without any express or implied warranties.
 For more details see the full text of the license in the file
 LICENSE or in <http://www.gnu.org/licenses/>.

                 Copyright (C) The OpenMolcas Authors
           For the author list and the recommended citation,
                   consult the file CONTRIBUTORS.md

           *************************************************
           * pymolcas version py2.28                       *
           *   build c4a6d18ded8cb6cad61d2372a9abd97c      *
           *   (after the EMIL interpreter by V. Veryazov) *
           *************************************************

configuration info
------------------
Host name: mgt (Linux)
C Compiler ID: GNU
C flags: -std=gnu99
Fortran Compiler ID: GNU
Fortran flags: -fno-aggressive-loop-optimizations -cpp -fdefault-integer-8 -fmax-stack-var-size=1048576
Definitions: _MOLCAS_;_I8_;_LINUX_
Parallel: OFF (GA=OFF)


   ----------------------------------------------------------------------------------------------------------
  |
  |           Project: n2
  |    Submitted from: /public/home/xzzeng/work/HQC/N2/cc-pvtz/NO/PES/entropy/1.2/results/work_dir/n2/initial
  |      Scratch area: /public/home/xzzeng/work/HQC/N2/cc-pvtz/NO/PES/entropy/1.2/results/scratch
  |   Save outputs to: /public/home/xzzeng/work/HQC/N2/cc-pvtz/NO/PES/entropy/1.2/results/work_dir/n2/initial
  |            Molcas: /public/home/xzzeng/soft/OpenMolcas/build
  |
  | Scratch area is empty
  |
  |    MOLCAS_DRIVER = /public/home/xzzeng/soft/OpenMolcas/build/pymolcas
  |    MOLCAS_NPROCS = 1
  |    MOLCAS_SOURCE = /public/home/xzzeng/soft/OpenMolcas
  | MOLCAS_STRUCTURE = 0
  |
   ----------------------------------------------------------------------------------------------------------

++ ---------   Input file   ---------

&GATEWAY
  COORD = /public/home/xzzeng/work/HQC/N2/cc-pvtz/NO/PES/entropy/1.2/n2.xyz
  BASIS = cc-pvtz
  GROUP = C1

&SEWARD
  CHOLesky

&SCF
  SPIN   = 1
  CHARGE = 0
  CHOLesky

-- ----------------------------------

--- Start Module: gateway at Tue Apr  9 00:41:46 2024 ---

()()()()()()()()()()()()()()()()()()()()()()()()()()()()()()()()()()()()()()()()()()()()()()()()()()

                                              &GATEWAY

                                   only a single process is used
                       available to each process: 12 GB of memory, 1 thread?
                                             pid: 59857
()()()()()()()()()()()()()()()()()()()()()()()()()()()()()()()()()()()()()()()()()()()()()()()()()()


++    Symmetry information:
      ---------------------

                    Character Table for C1 

                             E  
                    a        1  x, y, xy, Rz, z, xz, Ry, yz, Rx, I
--


++    Basis set information:
      ----------------------


      Basis set label: N.CC-PVTZ.........

      Electronic valence basis set:
      ------------------
      Associated Effective Charge   7.000000 au
      Associated Actual Charge      7.000000 au
      Nuclear Model: Point charge

      Shell  nPrim  nBasis  Cartesian Spherical Contaminant
         s      10       4        X                  
         p       5       3        X                  
         d       2       2                 X         
         f       1       1                 X         
--


++    Molecular structure info:
      -------------------------

                    ************************************************ 
                    **** Cartesian Coordinates / Bohr, Angstrom **** 
                    ************************************************ 

     Center  Label                x              y              z                     x              y              z
        1      N1               0.000000       0.000000       0.000000              0.000000       0.000000       0.000000
        2      N2               0.000000       0.000000       2.267671              0.000000       0.000000       1.200000
--


            Nuclear Potential Energy             21.60806945 au

--- Stop Module: gateway at Tue Apr  9 00:41:47 2024 /rc=_RC_ALL_IS_WELL_ ---
*** files: xmldump
    saved to directory /public/home/xzzeng/work/HQC/N2/cc-pvtz/NO/PES/entropy/1.2/results/work_dir/n2/initial

--- Start Module: seward at Tue Apr  9 00:41:47 2024 ---

()()()()()()()()()()()()()()()()()()()()()()()()()()()()()()()()()()()()()()()()()()()()()()()()()()

                                              &SEWARD

                                   only a single process is used
                       available to each process: 12 GB of memory, 1 thread?
                                             pid: 59866
()()()()()()()()()()()()()()()()()()()()()()()()()()()()()()()()()()()()()()()()()()()()()()()()()()

               SEWARD will generate:
                  Multipole Moment integrals up to order  2
                  Kinetic Energy integrals
                  Nuclear Attraction integrals (point charge)
                  One-Electron Hamiltonian integrals
                  Velocity integrals
                  Orbital angular momentum around ( 0.0000  0.0000  1.1338 )
                  Velocity quadrupole around ( 0.0000  0.0000  1.1338 )
                  Cholesky decomposed two-electron repulsion integrals
                   - CD Threshold:   0.10E-03

                   Integrals are discarded if absolute value <: 1.00E-40
                   Integral cutoff threshold is set to       <: 1.00E-40

            Nuclear Potential Energy             21.60806945 au


      Basis set specifications :
      Symmetry species         a  
      Basis functions           60


      Input file to MOLDEN was generated!

--- Stop Module: seward at Tue Apr  9 00:41:48 2024 /rc=_RC_ALL_IS_WELL_ ---
*** files: n2.GssOrb n2.guessorb.h5 n2.guessorb.molden xmldump
    saved to directory /public/home/xzzeng/work/HQC/N2/cc-pvtz/NO/PES/entropy/1.2/results/work_dir/n2/initial

*** symbolic link created: INPORB -> n2.GssOrb
--- Start Module: scf at Tue Apr  9 00:41:48 2024 ---

()()()()()()()()()()()()()()()()()()()()()()()()()()()()()()()()()()()()()()()()()()()()()()()()()()

                                                &SCF

                                   only a single process is used
                       available to each process: 12 GB of memory, 1 thread?
                                             pid: 59875
()()()()()()()()()()()()()()()()()()()()()()()()()()()()()()()()()()()()()()()()()()()()()()()()()()

++    Input section:
      --------------

      Header of the integral files:
      
       Integrals generated by Gateway/Seward, Tue Apr  9 00:41:47 2024


      Cartesian coordinates in Angstrom:
      -----------------------------------------------------
      No.  Label        X            Y            Z        
      -----------------------------------------------------
       1   N1         0.00000000   0.00000000   0.00000000
       2   N2         0.00000000   0.00000000   1.20000000
      -----------------------------------------------------
      Nuclear repulsion energy =   21.60806945
--

++    Orbital specifications:
      -----------------------

      Symmetry species               1
                                     a
      Frozen orbitals                0
      Occupied orbitals              7
      Secondary orbitals            53
      Deleted orbitals               0
      Total number of orbitals      60
      Number of basis functions     60
--

      Molecular charge                           0.000

++    Optimization specifications:
      ----------------------------

      SCF Algorithm: LK-Cholesky
      LK screening threshold:                     4.50E-02
      Local-Exchange (LK) algorithm.
       - the density matrix is decomposed
      The actual AO density is used
      Number of density matrices in core                 5
      Maximum number of NDDO SCF iterations            400
      Maximum number of HF SCF iterations              400
      Threshold for SCF energy change             1.00E-09
      Threshold for density matrix                1.00E-04
      Threshold for Fock matrix                   1.50E-04
      Threshold for linear dependence             1.00E-09
      Threshold at which DIIS is turned on        1.50E-01
      Maximum depth in the DIIS procedure                5
      Maximum depth in the BFGS Hessian update          30
      Threshold at which QNR/C2DIIS is turned on  7.50E-02
      Threshold for Norm(delta) (QNR/C2DIIS)      1.00E-03
      All orbitals punched on: SCFORB
--

      Input vectors read from INPORB
      Orbital file label: *Guess orbitals


++ Convergence information
                                   SCF        iterations: Energy and convergence statistics

Iter     Tot. SCF        One-elec.       Two-elec.     Energy      Max Dij or  Max Fij      DNorm      TNorm      AccCon     Time
         Energy          Energy          Energy        Change      Delta Norm                                                in Sec.
   1  -108.742214188  -189.320043332    58.969759698   0.00E+00    1.64E-01*   1.75E-01*    5.61E+00   7.05E+01   None         0.
   2  -108.932796644  -190.664798279    60.123932189  -1.91E-01*   4.61E-02*   2.78E-02*    5.78E+00   7.13E+01   EDIIS        0.
   3  -108.939210627  -190.200320770    59.653040699  -6.41E-03*   1.03E-02*   1.03E-02*    5.69E+00   7.10E+01   c2DIIS       0.
   4  -108.939605283  -190.315328008    59.767653279  -3.95E-04*   3.01E-03*   1.89E-03*    5.75E+00   7.11E+01   QNRc2DIIS    0.
   5  -108.939635089  -190.285982185    59.738277651  -2.98E-05*   1.01E-03*   6.82E-04*    5.75E+00   7.11E+01   QNRc2DIIS    0.
   6  -108.939637867  -190.290982814    59.743275502  -2.78E-06*   8.22E-05    4.75E-05     5.75E+00   7.11E+01   QNRc2DIIS    0.
   7  -108.939637887  -190.291410819    59.743703486  -2.02E-08*   1.58E-05    1.18E-05     5.75E+00   7.11E+01   QNRc2DIIS    0.
   8  -108.939637888  -190.291424256    59.743716924  -5.55E-10    3.87E-06    3.58E-06     5.75E+00   7.11E+01   QNRc2DIIS    0.

       Convergence after   8 Macro Iterations
--

 *****************************************************************************************************************************
 *                                                                                                                           *
 *                                             SCF/KS-DFT Program, Final results                                             *
 *                                                                                                                           *
 *                                                                                                                           *
 *                                                                                                                           *
 *                                                       Final Results                                                       *
 *                                                                                                                           *
 *****************************************************************************************************************************

::    Total SCF energy                               -108.9396378877
      One-electron energy                            -190.2914242564
      Two-electron energy                              59.7437169235
      Nuclear repulsion energy                         21.6080694452
      Kinetic energy (interpolated)                   108.2012733682
      Virial theorem                                    1.0068239910
      Total spin, S(S+1)                                0.0000000000
      Total spin, S                                     0.0000000000
      Max non-diagonal density matrix element           0.0000039839
      Max non-diagonal Fock matrix element              0.0000019409


      All orbitals with orbital energies smaller than  E(LUMO)+0.5 are printed

++    Molecular orbitals:
      -------------------

      Title: SCF orbitals

      Molecular orbitals for symmetry species 1: a  

          Orbital            1         2         3         4         5         6         7         8         9        10    
          Energy          -15.7157  -15.7136   -1.3975   -0.8095   -0.6218   -0.5719   -0.5719    0.1142    0.1142    0.4109
          Occ. No.          2.0000    2.0000    2.0000    2.0000    2.0000    2.0000    2.0000    0.0000    0.0000    0.0000

        1 N1     1s         0.7042   -0.7096   -0.0150   -0.0053   -0.0007   -0.0000   -0.0000    0.0000    0.0000    0.0387
        2 N1     2s         0.0012    0.0023    0.6237   -0.6806    0.2280   -0.0000    0.0000    0.0000   -0.0000    0.4737
        3 N1     *s        -0.0001   -0.0004   -0.0024   -0.0025    0.0051    0.0000    0.0000    0.0000   -0.0000   -0.0434
        4 N1     *s        -0.0009   -0.0019   -0.1225   -0.0424    0.1608   -0.0000    0.0000   -0.0000   -0.0000    4.8119
        5 N1     2px        0.0000   -0.0000   -0.0000   -0.0000   -0.0000   -0.0008   -0.6162   -0.5516   -0.3498    0.0000
        6 N1     *px       -0.0000    0.0000    0.0000   -0.0000    0.0000    0.0000    0.0024    0.0184    0.0116    0.0000
        7 N1     *px       -0.0000    0.0000    0.0000   -0.0000   -0.0000    0.0000    0.0100   -0.3280   -0.2080   -0.0000
        8 N1     2py       -0.0000    0.0000    0.0000   -0.0000   -0.0000    0.6162   -0.0008    0.3498   -0.5516    0.0000
        9 N1     *py        0.0000   -0.0000   -0.0000    0.0000    0.0000   -0.0024    0.0000   -0.0116    0.0184    0.0000
       10 N1     *py        0.0000   -0.0000   -0.0000   -0.0000    0.0000   -0.0100    0.0000    0.2080   -0.3280   -0.0000
       11 N1     2pz        0.0045   -0.0034    0.2873    0.2941   -0.6856   -0.0000   -0.0000   -0.0000    0.0000    0.0449
       12 N1     *pz       -0.0025    0.0035   -0.0224   -0.0130    0.0317   -0.0000    0.0000   -0.0000   -0.0000    0.2665
       13 N1     *pz       -0.0014    0.0005   -0.0774   -0.0348    0.0729   -0.0000    0.0000   -0.0000    0.0000    3.1112
       14 N1     *d2-       0.0000   -0.0000   -0.0000   -0.0000   -0.0000    0.0000    0.0000   -0.0000   -0.0000    0.0000
       15 N1     *d2-       0.0000    0.0000    0.0000   -0.0000   -0.0000    0.0000    0.0000   -0.0000   -0.0000    0.0000
       16 N1     *d1-       0.0000    0.0000    0.0000   -0.0000    0.0000    0.0158   -0.0000   -0.0057    0.0090   -0.0000
       17 N1     *d1-       0.0000    0.0000    0.0000   -0.0000   -0.0000    0.0384   -0.0000   -0.0011    0.0017    0.0000
       18 N1     *d0        0.0004   -0.0003    0.0163    0.0034   -0.0160   -0.0000   -0.0000   -0.0000    0.0000   -0.0223
       19 N1     *d0       -0.0002    0.0004    0.0190    0.0063   -0.0188   -0.0000    0.0000   -0.0000    0.0000    0.2937
       20 N1     *d1+      -0.0000   -0.0000   -0.0000   -0.0000   -0.0000   -0.0000   -0.0158    0.0090    0.0057   -0.0000
       21 N1     *d1+      -0.0000    0.0000    0.0000   -0.0000    0.0000   -0.0000   -0.0384    0.0017    0.0011    0.0000
       22 N1     *d2+      -0.0000    0.0000   -0.0000    0.0000   -0.0000    0.0000   -0.0000   -0.0000    0.0000    0.0000
       23 N1     *d2+      -0.0000    0.0000   -0.0000    0.0000   -0.0000    0.0000   -0.0000   -0.0000    0.0000   -0.0000
       24 N1     *f3-       0.0000   -0.0000    0.0000    0.0000    0.0000   -0.0000    0.0000    0.0000   -0.0000    0.0000
       25 N1     *f2-      -0.0000   -0.0000   -0.0000   -0.0000    0.0000   -0.0000   -0.0000    0.0000    0.0000   -0.0000
       26 N1     *f1-       0.0000    0.0000   -0.0000   -0.0000   -0.0000    0.0073   -0.0000   -0.0006    0.0010   -0.0000
       27 N1     *f0       -0.0002   -0.0002    0.0068   -0.0005   -0.0052   -0.0000   -0.0000    0.0000   -0.0000    0.0274
       28 N1     *f1+       0.0000   -0.0000    0.0000   -0.0000    0.0000   -0.0000   -0.0073    0.0010    0.0006   -0.0000
       29 N1     *f2+       0.0000    0.0000    0.0000   -0.0000    0.0000   -0.0000    0.0000    0.0000   -0.0000    0.0000
       30 N1     *f3+       0.0000    0.0000    0.0000    0.0000    0.0000   -0.0000   -0.0000    0.0000    0.0000    0.0000
       31 N2     1s         0.7105    0.7033   -0.0150    0.0053   -0.0007   -0.0000    0.0000    0.0000   -0.0000   -0.0387
       32 N2     2s         0.0013   -0.0023    0.6238    0.6806    0.2280    0.0000   -0.0000    0.0000   -0.0000   -0.4736
       33 N2     *s        -0.0001    0.0004   -0.0024    0.0025    0.0051   -0.0000   -0.0000   -0.0000   -0.0000    0.0434
       34 N2     *s        -0.0009    0.0019   -0.1225    0.0424    0.1607    0.0000   -0.0000    0.0000   -0.0000   -4.8119
       35 N2     2px       -0.0000   -0.0000    0.0000   -0.0000    0.0000   -0.0008   -0.6162    0.5516    0.3498    0.0000
       36 N2     *px        0.0000    0.0000   -0.0000   -0.0000   -0.0000    0.0000    0.0024   -0.0184   -0.0116    0.0000
       37 N2     *px        0.0000   -0.0000    0.0000   -0.0000    0.0000    0.0000    0.0100    0.3280    0.2080   -0.0000
       38 N2     2py        0.0000    0.0000   -0.0000   -0.0000    0.0000    0.6162   -0.0008   -0.3498    0.5516    0.0000
       39 N2     *py       -0.0000   -0.0000    0.0000    0.0000    0.0000   -0.0024    0.0000    0.0116   -0.0184    0.0000
       40 N2     *py       -0.0000   -0.0000   -0.0000   -0.0000    0.0000   -0.0100    0.0000   -0.2080    0.3280   -0.0000
       41 N2     2pz       -0.0045   -0.0034   -0.2873    0.2941    0.6856    0.0000   -0.0000    0.0000   -0.0000    0.0449
       42 N2     *pz        0.0025    0.0035    0.0224   -0.0130   -0.0317   -0.0000    0.0000   -0.0000    0.0000    0.2665
       43 N2     *pz        0.0014    0.0005    0.0774   -0.0348   -0.0729   -0.0000   -0.0000   -0.0000   -0.0000    3.1114
       44 N2     *d2-      -0.0000   -0.0000    0.0000    0.0000    0.0000   -0.0000   -0.0000   -0.0000   -0.0000   -0.0000
       45 N2     *d2-      -0.0000    0.0000   -0.0000   -0.0000    0.0000   -0.0000   -0.0000   -0.0000   -0.0000    0.0000
       46 N2     *d1-       0.0000   -0.0000   -0.0000    0.0000    0.0000   -0.0158    0.0000   -0.0057    0.0090   -0.0000
       47 N2     *d1-       0.0000   -0.0000   -0.0000    0.0000    0.0000   -0.0384    0.0000   -0.0011    0.0017   -0.0000
       48 N2     *d0        0.0004    0.0003    0.0163   -0.0034   -0.0160   -0.0000   -0.0000   -0.0000    0.0000    0.0223
       49 N2     *d0       -0.0002   -0.0004    0.0190   -0.0063   -0.0188   -0.0000   -0.0000   -0.0000    0.0000   -0.2937
       50 N2     *d1+       0.0000    0.0000    0.0000   -0.0000   -0.0000    0.0000    0.0158    0.0090    0.0057    0.0000
       51 N2     *d1+      -0.0000    0.0000    0.0000    0.0000   -0.0000    0.0000    0.0384    0.0017    0.0011   -0.0000
       52 N2     *d2+       0.0000    0.0000    0.0000   -0.0000    0.0000   -0.0000    0.0000   -0.0000    0.0000   -0.0000
       53 N2     *d2+      -0.0000   -0.0000   -0.0000    0.0000   -0.0000   -0.0000    0.0000   -0.0000    0.0000    0.0000
       54 N2     *f3-       0.0000    0.0000   -0.0000    0.0000   -0.0000   -0.0000    0.0000    0.0000   -0.0000   -0.0000
       55 N2     *f2-       0.0000    0.0000   -0.0000    0.0000    0.0000   -0.0000    0.0000   -0.0000   -0.0000   -0.0000
       56 N2     *f1-      -0.0000    0.0000    0.0000   -0.0000   -0.0000    0.0073   -0.0000    0.0006   -0.0010   -0.0000
       57 N2     *f0        0.0002   -0.0002   -0.0068   -0.0005    0.0052    0.0000    0.0000   -0.0000    0.0000    0.0274
       58 N2     *f1+      -0.0000   -0.0000   -0.0000    0.0000   -0.0000   -0.0000   -0.0073   -0.0010   -0.0006   -0.0000
       59 N2     *f2+       0.0000    0.0000    0.0000    0.0000    0.0000    0.0000    0.0000   -0.0000    0.0000    0.0000
       60 N2     *f3+      -0.0000   -0.0000   -0.0000   -0.0000    0.0000   -0.0000   -0.0000    0.0000    0.0000   -0.0000

          Orbital           11        12        13    
          Energy            0.5758    0.5779    0.5779
          Occ. No.          0.0000    0.0000    0.0000

        1 N1     1s         0.0328    0.0000    0.0000
        2 N1     2s         0.0263   -0.0000    0.0000
        3 N1     *s         0.0178   -0.0000   -0.0000
        4 N1     *s         0.3046    0.0000    0.0000
        5 N1     2px        0.0000   -0.2835    0.2757
        6 N1     *px        0.0000   -0.2488    0.2420
        7 N1     *px       -0.0000    0.6050   -0.5885
        8 N1     2py        0.0000   -0.2757   -0.2835
        9 N1     *py        0.0000   -0.2420   -0.2488
       10 N1     *py       -0.0000    0.5885    0.6050
       11 N1     2pz        0.3109    0.0000   -0.0000
       12 N1     *pz        0.3209    0.0000    0.0000
       13 N1     *pz       -1.2478    0.0000    0.0000
       14 N1     *d2-      -0.0000   -0.0000    0.0000
       15 N1     *d2-       0.0000    0.0000   -0.0000
       16 N1     *d1-       0.0000   -0.0072   -0.0074
       17 N1     *d1-       0.0000   -0.0566   -0.0582
       18 N1     *d0        0.0398    0.0000    0.0000
       19 N1     *d0       -0.0733    0.0000    0.0000
       20 N1     *d1+       0.0000   -0.0074    0.0072
       21 N1     *d1+       0.0000   -0.0582    0.0566
       22 N1     *d2+      -0.0000    0.0000    0.0000
       23 N1     *d2+       0.0000   -0.0000   -0.0000
       24 N1     *f3-      -0.0000    0.0000    0.0000
       25 N1     *f2-       0.0000    0.0000   -0.0000
       26 N1     *f1-      -0.0000    0.0004    0.0005
       27 N1     *f0       -0.0186    0.0000    0.0000
       28 N1     *f1+      -0.0000    0.0005   -0.0004
       29 N1     *f2+       0.0000   -0.0000   -0.0000
       30 N1     *f3+       0.0000   -0.0000    0.0000
       31 N2     1s         0.0329    0.0000    0.0000
       32 N2     2s         0.0263    0.0000    0.0000
       33 N2     *s         0.0178    0.0000   -0.0000
       34 N2     *s         0.3047   -0.0000   -0.0000
       35 N2     2px        0.0000   -0.2835    0.2757
       36 N2     *px        0.0000   -0.2488    0.2420
       37 N2     *px       -0.0000    0.6050   -0.5885
       38 N2     2py        0.0000   -0.2757   -0.2835
       39 N2     *py        0.0000   -0.2420   -0.2488
       40 N2     *py       -0.0000    0.5885    0.6050
       41 N2     2pz       -0.3110   -0.0000    0.0000
       42 N2     *pz       -0.3209    0.0000    0.0000
       43 N2     *pz        1.2477    0.0000    0.0000
       44 N2     *d2-      -0.0000    0.0000   -0.0000
       45 N2     *d2-       0.0000   -0.0000    0.0000
       46 N2     *d1-       0.0000    0.0072    0.0074
       47 N2     *d1-      -0.0000    0.0566    0.0582
       48 N2     *d0        0.0398    0.0000   -0.0000
       49 N2     *d0       -0.0733   -0.0000   -0.0000
       50 N2     *d1+      -0.0000    0.0074   -0.0072
       51 N2     *d1+      -0.0000    0.0582   -0.0566
       52 N2     *d2+       0.0000   -0.0000   -0.0000
       53 N2     *d2+      -0.0000    0.0000    0.0000
       54 N2     *f3-      -0.0000    0.0000    0.0000
       55 N2     *f2-       0.0000    0.0000    0.0000
       56 N2     *f1-      -0.0000    0.0004    0.0005
       57 N2     *f0        0.0186    0.0000    0.0000
       58 N2     *f1+       0.0000    0.0005   -0.0004
       59 N2     *f2+       0.0000    0.0000   -0.0000
       60 N2     *f3+      -0.0000   -0.0000    0.0000
--


++    Molecular charges:
      ------------------

      Mulliken charges per centre and basis function type
      ---------------------------------------------------

                N1      N2    
      1s       1.9995  1.9995
      2s       1.8287  1.8287
      2px      0.9889  0.9889
      2pz      1.3977  1.3976
      2py      0.9889  0.9889
      *s      -0.0308 -0.0308
      *px     -0.0180 -0.0181
      *pz     -0.2158 -0.2158
      *py     -0.0180 -0.0181
      *d2+     0.0000  0.0000
      *d1+     0.0273  0.0273
      *d0      0.0189  0.0189
      *d1-     0.0273  0.0273
      *d2-     0.0000  0.0000
      *f3+     0.0000  0.0000
      *f2+     0.0000  0.0000
      *f1+     0.0018  0.0018
      *f0      0.0018  0.0018
      *f1-     0.0018  0.0018
      *f2-     0.0000  0.0000
      *f3-     0.0000  0.0000
      Total    7.0000  7.0000

      N-E      0.0000 -0.0000

      Total electronic charge=   14.000000

      Total            charge=   -0.000000
--


++    Molecular properties:
      ---------------------

      Charge (e):
                      =   -0.0000
      Dipole Moment (Debye):
      Origin of the operator (Ang)=    0.0000    0.0000    0.0000
                   X=  5.0093E-13               Y= -2.5166E-13               Z= -2.2625E-06           Total=  2.2625E-06
      Quadrupole Moment (Debye*Ang):
      Origin of the operator (Ang)=    0.0000    0.0000    0.6000
                  XX= -1.0629E+01              XY= -9.4447E-17              XZ= -1.9779E-12              YY= -1.0629E+01
                  YZ= -5.9941E-12              ZZ= -1.1652E+01
      In traceless form (Debye*Ang)
                  XX=  5.1137E-01              XY= -1.4167E-16              XZ= -2.9668E-12              YY=  5.1137E-01
                  YZ= -8.9911E-12              ZZ= -1.0227E+00
--


      Input file to MOLDEN was generated!

 ###############################################################################
 ###############################################################################
 ###                                                                         ###
 ###                                                                         ###
 ###    WARNING: RunFile label nBas                                          ###
 ###    was used       74 times                                              ###
 ###                                                                         ###
 ###                                                                         ###
 ###############################################################################
 ###############################################################################
--- Stop Module: scf at Tue Apr  9 00:41:49 2024 /rc=_RC_ALL_IS_WELL_ ---
*** files: n2.GssOrb n2.guessorb.h5 n2.guessorb.molden n2.scf.molden n2.ScfOrb n2.scf.h5 xmldump
    saved to directory /public/home/xzzeng/work/HQC/N2/cc-pvtz/NO/PES/entropy/1.2/results/work_dir/n2/initial

.##################.
.# Happy landing! #.
.##################.

    Timing: Wall=2.28 User=1.44 System=0.29
