   This run of MOLCAS is using the pymolcas driver

                             OPE
                             OPE          NMOL  CASOP  ENMOLC A   SO
                 OPE        NMOLC        AS  OP EN  MO LC     AS  OP
                OPENM       OL CA        SO  PE NM  OL CA     SOP EN
                OP EN      MO   LC       AS  OP ENMOL  CASO   PENMOL
                OP  EN     MO   LC       AS  OP EN     MO     LC ASO
               OP   E  NMOL  C  AS       OP  EN MO     LC     AS  OP
               OP  E   NMO   LC AS        OPEN  MO     LCASOP EN   M
               O  PEN   MO  LCA  SO
            OPE   NMO   L   CAS    OP
        OPENMOL  CASOP     ENMOL   CASOPE
     OPENMOLCA   SOPENMOLCASOPEN   MOLCASOPE
    OPENMOLCAS   OP           EN   MOL    CAS
    OPENMOLCAS       OP  ENM        O     LCA
    OPENMOLCAS    OPEN  MOLCASO     P  E  NMO
    OPENMOLCAS     OP               E  N  MOL
    OPENMOLCA   SO           PENM   O  L  CAS    OPEN    MO    LCAS
    OPENMOLCA   SOP           ENM   O  L  CAS   OP  EN  MOLC  AS   O
    OPENMOLCA   SOPE           NM      O  LCA   S      OP  EN MO
    OPENMOLC                AS         O  PEN   M      OL  CA  SOPE
    OPENMO        LCASOPE  NMOL        C  ASO   P      ENMOLC     AS
    OPE     NMO      LCA  SO     P     E   NM   OL  CA SO  PE N   MO
          OPENMOLCA            SOPE   NMO        LCAS  O    P  ENMO
     OPENMOLCASOPENMOLCASOPENMOLCASOPENMOLCA
        OPENMOLCASOPENMOLCASOPENMOLCASOPE
            OPENMOLCASOPENMOLCASOPENM
               OPENMOLCASOPENMOLCA        version: o822a959167d23c ?
                   OPENMOLCASO
                       OPE                tag:

 OpenMolcas is free software; you can redistribute it and/or modify it
 under the terms of the GNU Lesser General Public License version 2.1.
 OpenMolcas is distributed in the hope that it will be useful, but it
 is provided "as is" and without any express or implied warranties.
 For more details see the full text of the license in the file
 LICENSE or in <http://www.gnu.org/licenses/>.

                 Copyright (C) The OpenMolcas Authors
           For the author list and the recommended citation,
                   consult the file CONTRIBUTORS.md

           *************************************************
           * pymolcas version py2.28                       *
           *   build c4a6d18ded8cb6cad61d2372a9abd97c      *
           *   (after the EMIL interpreter by V. Veryazov) *
           *************************************************

configuration info
------------------
Host name: mgt (Linux)
C Compiler ID: GNU
C flags: -std=gnu99
Fortran Compiler ID: GNU
Fortran flags: -fno-aggressive-loop-optimizations -cpp -fdefault-integer-8 -fmax-stack-var-size=1048576
Definitions: _MOLCAS_;_I8_;_LINUX_
Parallel: OFF (GA=OFF)


   -------------------------------------------------------------------------------------------------------
  |
  |           Project: n2
  |    Submitted from: /public/home/xzzeng/work/HQC/N2/cc-pvtz/NO/PES/entropy/5.0/results/work_dir/n2/dmrg
  |      Scratch area: /public/home/xzzeng/work/HQC/N2/cc-pvtz/NO/PES/entropy/5.0/results/scratch
  |   Save outputs to: /public/home/xzzeng/work/HQC/N2/cc-pvtz/NO/PES/entropy/5.0/results/work_dir/n2/dmrg
  |            Molcas: /public/home/xzzeng/soft/OpenMolcas/build
  |
  | Scratch area is NOT empty
  |
  |    MOLCAS_DRIVER = /public/home/xzzeng/soft/OpenMolcas/build/pymolcas
  |    MOLCAS_NPROCS = 1
  |    MOLCAS_SOURCE = /public/home/xzzeng/soft/OpenMolcas
  | MOLCAS_STRUCTURE = 0
  |
   -------------------------------------------------------------------------------------------------------

++ ---------   Input file   ---------

&DMRGSCF
ActiveSpaceOptimizer = QCMaquis
DMRGSettings
  nsweeps = 5
  max_bond_dimension = 300
EndDMRGSettings
OOptimizationSettings
  SPIN    = 1
  NACTEL  = 10
  FILEORB = /public/home/xzzeng/work/HQC/N2/cc-pvtz/NO/PES/entropy/5.0/results/work_dir/n2/dmrg/n2.scf.h5_sel
  TYPEINDEX
  CIONLY
EndOOptimizationSettings

-- ----------------------------------

*** symbolic link created: INPORB -> n2.ScfOrb
--- Start Module: dmrgscf at Tue Apr  9 00:43:39 2024 ---

()()()()()()()()()()()()()()()()()()()()()()()()()()()()()()()()()()()()()()()()()()()()()()()()()()

                                              &DMRGSCF

                                   only a single process is used
                       available to each process: 12 GB of memory, 1 thread?
                                             pid: 63807
()()()()()()()()()()()()()()()()()()()()()()()()()()()()()()()()()()()()()()()()()()()()()()()()()()


      DMRGSCF: active space solver is set to qcmaquis
      -------                                --------


      Header of the ONEINT file:
      --------------------------
      
      Integrals generated by Gateway/Seward, Tue Apr  9 00:43:36 2024


      OrdInt status: non-squared


      Cartesian coordinates in Angstrom:
      -----------------------------------------------------
      No.  Label        X            Y            Z        
      -----------------------------------------------------
       1   N1         0.00000000   0.00000000   0.00000000
       2   N2         0.00000000   0.00000000   5.00000000
      -----------------------------------------------------
      Nuclear repulsion energy =    5.18593667

++    Wave function specifications:
      -----------------------------

      Number of closed shell electrons           4
      Number of electrons in active shells      10
      Max number of holes in RAS1 space          0
      Max nr of electrons in RAS3 space          0
      Number of inactive orbitals                2
      Number of active orbitals                  8
      Number of secondary orbitals              50
      Spin quantum number                      0.0
      State symmetry                             1
--

++    Orbital specifications:
      -----------------------

      Symmetry species                           1
                                                 a
      Frozen orbitals                            0
      Inactive orbitals                          2
      Active orbitals                            8
      RAS1 orbitals                              0
      RAS2 orbitals                              8
      RAS3 orbitals                              0
      Secondary orbitals                        50
      Deleted orbitals                           0
      Number of basis functions                 60
--

++    DMRG specifications:
      ----------------------------

      Number of renormalized states              300
      (Max) number of sweeps                     5
      Convergence threshold (sweep tolerance)    0.100E-07
      Jacobi-Davidson threshold                  0.100E-10
      SVD truncation threshold (initial)         1e-50
      SVD truncation threshold (final)           0.100E-10
      Number of root(s) required                 1
      Root chosen for geometry opt.              1
      DMRG root used                             1
         
--

++    Optimization specifications:
      ----------------------------

      RASSCF algorithm: LK Cholesky
      Maximum number of macro iterations       200
      Maximum number of SX iterations          100
      Threshold for RASSCF energy            1.000E-08
      Threshold for max MO rotation          1.000E-01
      Threshold for max BLB element          1.000E-04
      Level shift parameter                  5.000E-01
      Make Quasi-Newton update
--

      The MO-coefficients are taken from the file:
      /public/home/xzzeng/work/HQC/N2/cc-pvtz/NO/PES/entropy/5.0/results/work_dir/n2/dmrg/n2.scf.h5_sel                                                                                                                                                               

      Total molecular charge    0.00

      ************************************************************************************************************************
      *                                                                                                                      *
      *                                            Wave function control section                                             *
      *                                                                                                                      *
      ************************************************************************************************************************


                                         DMRGCI only, no orbital optimization will be done.
                                         --------------------------------------------------

                                             Please cite for the QCMaquis-Molcas driver:

                                    Freitag L.; Keller S.; Knecht S.; Lindh R.; Ma Y.; 
                                    Stein C. J. and Reiher M., in preparation. (2018).
                                    ---------------------------------------------------------------

                                             Please cite for the QCMaquis DMRG software:

                                    S. Keller, M. Dolfi, M. Troyer, M. Reiher,
                                    J. Chem. Phys. 143, 244118 (2015)
                                    ---------------------------------------------------------------



      DMRGCI energy              :    -108.7415360473
      Total time spent (hh:mm:ss):            0:00:04


      Natural orbitals and occupation numbers for root  1
      sym 1:   1.999996   1.999993   1.004834   1.000454   1.000454   0.999548   0.999548   0.995173

      ************************************************************************************************************************
      *                                                                                                                      *
      *                                                    Final results                                                     *
      *                                                                                                                      *
      ************************************************************************************************************************


++    Wave function specifications:
      -----------------------------

      Number of closed shell electrons           4
      Number of electrons in active shells      10
      Max number of holes in RAS1 space          0
      Max nr of electrons in RAS3 space          0
      Number of inactive orbitals                2
      Number of active orbitals                  8
      Number of secondary orbitals              50
      Spin quantum number                      0.0
      State symmetry                             1
--

++    Orbital specifications:
      -----------------------

      Symmetry species                           1
                                                 a
      Frozen orbitals                            0
      Inactive orbitals                          2
      Active orbitals                            8
      RAS1 orbitals                              0
      RAS2 orbitals                              8
      RAS3 orbitals                              0
      Secondary orbitals                        50
      Deleted orbitals                           0
      Number of basis functions                 60
--

++    DMRG specifications:
      ----------------------------

      Number of renormalized states              300
      (Max) number of sweeps                     5
      Convergence threshold (sweep tolerance)    0.100E-07
      Jacobi-Davidson threshold                  0.100E-10
      SVD truncation threshold (initial)         1e-50
      SVD truncation threshold (final)           0.100E-10
      Number of root(s) required                 1
      DMRG root used                             1
      highest root included in the DMRG          1
      Root passed to geometry opt.               1
--

++    Final optimization conditions:
      ------------------------------

      Average CI energy                            -108.74153605
--


      Final state energy(ies):
      ------------------------

::    RASSCF root number  1 Total energy:   -108.74153605

++    Molecular orbitals:
      -------------------

      Pseudonatural active orbitals and approximate occupation numbers




      Molecular orbitals for symmetry species 1: a  


      Orbital                 1         2         3         4         5         6         7         8         9        10
      Energy             0.0000    0.0000    0.0000    0.0000    0.0000    0.0000    0.0000    0.0000    0.0000    0.0000
      Occ. No.           0.0000    0.0000    0.0000    0.0000    0.0000    0.0000    0.0000    0.0000    0.0000    0.0000

     1 N1     1s         0.4622   -0.8876    0.0011   -0.0018    0.0026   -0.0000    0.0000    0.0000   -0.0000    0.0018
     2 N1     2s         0.0002   -0.0003    0.7281   -0.7319    0.0150   -0.0000    0.0000    0.0000   -0.0000    0.0149
     3 N1     *s        -0.0006    0.0012    0.0076   -0.0073   -0.0008    0.0000   -0.0000   -0.0000    0.0000   -0.0008
     4 N1     *s        -0.0001    0.0002   -0.0295    0.0327   -0.0131    0.0000   -0.0000   -0.0000    0.0000   -0.0081
     5 N1     2px       -0.0000   -0.0000   -0.0000    0.0000   -0.0000   -0.0000    0.6476    0.0000   -0.6474   -0.0000
     6 N1     *px        0.0000    0.0000    0.0000    0.0000    0.0000    0.0000   -0.0177   -0.0000    0.0177    0.0000
     7 N1     *px       -0.0000   -0.0000   -0.0000    0.0000   -0.0000   -0.0000    0.0976    0.0000   -0.0979   -0.0000
     8 N1     2py        0.0000   -0.0000    0.0000   -0.0000    0.0000    0.6476    0.0000   -0.6474   -0.0000    0.0000
     9 N1     *py       -0.0000    0.0000    0.0000   -0.0000   -0.0000   -0.0177   -0.0000    0.0177    0.0000   -0.0000
    10 N1     *py       -0.0000    0.0000   -0.0000    0.0000    0.0000    0.0976    0.0000   -0.0979   -0.0000    0.0000
    11 N1     2pz        0.0001   -0.0002    0.0016    0.0069   -0.6450    0.0000   -0.0000    0.0000   -0.0000    0.6482
    12 N1     *pz       -0.0001    0.0001   -0.0002   -0.0005    0.0200   -0.0000    0.0000   -0.0000    0.0000   -0.0161
    13 N1     *pz       -0.0000    0.0000    0.0014    0.0007   -0.1029    0.0000   -0.0000    0.0000    0.0000    0.0955
    14 N1     *d2-       0.0000    0.0000    0.0000    0.0000    0.0000   -0.0000    0.0000    0.0000    0.0000    0.0000
    15 N1     *d2-      -0.0000   -0.0000   -0.0000    0.0000   -0.0000    0.0000    0.0000    0.0000   -0.0000   -0.0000
    16 N1     *d1-       0.0000   -0.0000    0.0000   -0.0000    0.0000    0.0001    0.0000   -0.0001   -0.0000    0.0000
    17 N1     *d1-       0.0000   -0.0000    0.0000   -0.0000    0.0000    0.0021    0.0000    0.0017    0.0000   -0.0000
    18 N1     *d0       -0.0000    0.0000   -0.0000    0.0000   -0.0001    0.0000   -0.0000    0.0000   -0.0000    0.0002
    19 N1     *d0        0.0000    0.0000    0.0002    0.0002   -0.0029    0.0000   -0.0000   -0.0000    0.0000   -0.0023
    20 N1     *d1+       0.0000   -0.0000    0.0000    0.0000   -0.0000   -0.0000    0.0001    0.0000   -0.0001   -0.0000
    21 N1     *d1+      -0.0000   -0.0000   -0.0000   -0.0000   -0.0000   -0.0000    0.0021   -0.0000    0.0017    0.0000
    22 N1     *d2+      -0.0000    0.0000   -0.0000    0.0000   -0.0000   -0.0000   -0.0000   -0.0000    0.0000   -0.0000
    23 N1     *d2+      -0.0000    0.0000   -0.0000    0.0000    0.0000   -0.0000   -0.0000    0.0000    0.0000    0.0000
    24 N1     *f3-       0.0000    0.0000   -0.0000   -0.0000    0.0000    0.0000    0.0000    0.0000    0.0000   -0.0000
    25 N1     *f2-       0.0000    0.0000    0.0000   -0.0000   -0.0000   -0.0000    0.0000    0.0000    0.0000    0.0000
    26 N1     *f1-      -0.0000    0.0000    0.0000    0.0000   -0.0000    0.0001    0.0000    0.0000    0.0000   -0.0000
    27 N1     *f0        0.0000   -0.0000    0.0000    0.0000   -0.0001    0.0000    0.0000   -0.0000   -0.0000   -0.0001
    28 N1     *f1+      -0.0000    0.0000   -0.0000   -0.0000    0.0000   -0.0000    0.0001   -0.0000    0.0000   -0.0000
    29 N1     *f2+       0.0000   -0.0000    0.0000   -0.0000   -0.0000   -0.0000   -0.0000   -0.0000    0.0000   -0.0000
    30 N1     *f3+      -0.0000   -0.0000    0.0000   -0.0000    0.0000   -0.0000    0.0000   -0.0000    0.0000   -0.0000
    31 N2     1s         0.8876    0.4622    0.0011    0.0018    0.0026   -0.0000    0.0000   -0.0000    0.0000   -0.0018
    32 N2     2s         0.0003    0.0002    0.7289    0.7311    0.0150   -0.0000    0.0000   -0.0000    0.0000   -0.0149
    33 N2     *s        -0.0012   -0.0006    0.0076    0.0073   -0.0008    0.0000   -0.0000    0.0000   -0.0000    0.0008
    34 N2     *s        -0.0002   -0.0001   -0.0295   -0.0327   -0.0131    0.0000   -0.0000    0.0000   -0.0000    0.0081
    35 N2     2px       -0.0000   -0.0000   -0.0000   -0.0000   -0.0000   -0.0000    0.6476   -0.0000    0.6474    0.0000
    36 N2     *px        0.0000    0.0000    0.0000    0.0000    0.0000    0.0000   -0.0177    0.0000   -0.0177   -0.0000
    37 N2     *px       -0.0000   -0.0000   -0.0000   -0.0000   -0.0000   -0.0000    0.0976   -0.0000    0.0979   -0.0000
    38 N2     2py        0.0000    0.0000   -0.0000   -0.0000    0.0000    0.6476    0.0000    0.6474    0.0000   -0.0000
    39 N2     *py       -0.0000   -0.0000    0.0000    0.0000   -0.0000   -0.0177   -0.0000   -0.0177   -0.0000    0.0000
    40 N2     *py       -0.0000   -0.0000   -0.0000   -0.0000    0.0000    0.0976    0.0000    0.0979    0.0000   -0.0000
    41 N2     2pz       -0.0002   -0.0001   -0.0016    0.0069    0.6450   -0.0000    0.0000    0.0000   -0.0000    0.6482
    42 N2     *pz        0.0001    0.0001    0.0002   -0.0005   -0.0200    0.0000   -0.0000   -0.0000    0.0000   -0.0161
    43 N2     *pz        0.0000    0.0000   -0.0014    0.0007    0.1029   -0.0000    0.0000    0.0000   -0.0000    0.0956
    44 N2     *d2-       0.0000    0.0000    0.0000   -0.0000    0.0000    0.0000    0.0000   -0.0000    0.0000    0.0000
    45 N2     *d2-      -0.0000   -0.0000   -0.0000    0.0000   -0.0000   -0.0000   -0.0000   -0.0000    0.0000   -0.0000
    46 N2     *d1-       0.0000    0.0000    0.0000    0.0000   -0.0000   -0.0001   -0.0000   -0.0001   -0.0000    0.0000
    47 N2     *d1-       0.0000    0.0000   -0.0000    0.0000   -0.0000   -0.0021   -0.0000    0.0017    0.0000   -0.0000
    48 N2     *d0       -0.0000   -0.0000   -0.0000   -0.0000   -0.0001    0.0000   -0.0000   -0.0000    0.0000   -0.0002
    49 N2     *d0        0.0000   -0.0000    0.0002   -0.0002   -0.0029    0.0000   -0.0000    0.0000   -0.0000    0.0023
    50 N2     *d1+       0.0000    0.0000   -0.0000    0.0000    0.0000    0.0000   -0.0001    0.0000   -0.0001   -0.0000
    51 N2     *d1+      -0.0000   -0.0000    0.0000   -0.0000    0.0000    0.0000   -0.0021   -0.0000    0.0017    0.0000
    52 N2     *d2+       0.0000    0.0000    0.0000    0.0000   -0.0000   -0.0000    0.0000   -0.0000   -0.0000   -0.0000
    53 N2     *d2+       0.0000    0.0000    0.0000    0.0000    0.0000    0.0000   -0.0000   -0.0000   -0.0000    0.0000
    54 N2     *f3-       0.0000    0.0000   -0.0000   -0.0000    0.0000   -0.0000   -0.0000    0.0000    0.0000   -0.0000
    55 N2     *f2-       0.0000    0.0000    0.0000    0.0000    0.0000   -0.0000    0.0000   -0.0000   -0.0000   -0.0000
    56 N2     *f1-       0.0000    0.0000   -0.0000   -0.0000    0.0000    0.0001    0.0000   -0.0000   -0.0000   -0.0000
    57 N2     *f0       -0.0000    0.0000   -0.0000    0.0000    0.0001   -0.0000    0.0000    0.0000    0.0000   -0.0001
    58 N2     *f1+       0.0000    0.0000   -0.0000    0.0000   -0.0000   -0.0000    0.0001    0.0000   -0.0000   -0.0000
    59 N2     *f2+      -0.0000   -0.0000   -0.0000   -0.0000   -0.0000   -0.0000   -0.0000    0.0000   -0.0000    0.0000
    60 N2     *f3+       0.0000   -0.0000   -0.0000   -0.0000    0.0000   -0.0000    0.0000   -0.0000    0.0000    0.0000


      Orbital                11        12        13        14        15        16        17        18        19        20
      Energy             0.0000    0.0000    0.0000    0.0000    0.0000    0.0000    0.0000    0.0000    0.0000    0.0000
      Occ. No.           0.0000    0.0000    0.0000    0.0000    0.0000    0.0000    0.0000    0.0000    0.0000    0.0000

     1 N1     1s         0.0268   -0.0000    0.0000   -0.0000    0.0000    0.0482   -0.3525   -0.3514    0.0004    0.0000
     2 N1     2s         0.1285   -0.0000    0.0000   -0.0000    0.0000    0.2316   -1.7102   -1.7058    0.0022    0.0000
     3 N1     *s        -0.0086    0.0000   -0.0000    0.0000   -0.0000   -0.0146    0.0988    0.0975   -0.0000   -0.0000
     4 N1     *s        -0.1362    0.0000   -0.0000    0.0000   -0.0000   -0.2482    1.8416    1.8393   -0.0026   -0.0000
     5 N1     2px        0.0000    0.0000   -0.4969    0.4985    0.0000    0.0000   -0.0000    0.0000   -0.0000    0.0020
     6 N1     *px        0.0000    0.0000   -0.3487    0.3485    0.0000    0.0000   -0.0000    0.0000    0.0000    0.0000
     7 N1     *px       -0.0000   -0.0000    1.0157   -1.0176   -0.0000   -0.0000    0.0000   -0.0000   -0.0000    0.0003
     8 N1     2py       -0.0000   -0.4968   -0.0000   -0.0000    0.4986   -0.0000    0.0000   -0.0000    0.0000   -0.0000
     9 N1     *py       -0.0000   -0.3486   -0.0000   -0.0000    0.3485   -0.0000    0.0000   -0.0000    0.0000   -0.0000
    10 N1     *py        0.0000    1.0155    0.0000    0.0000   -1.0177    0.0000   -0.0000    0.0000    0.0000   -0.0000
    11 N1     2pz        0.4945   -0.0000   -0.0000   -0.0000   -0.0000   -0.4969    0.0348   -0.0674   -0.0007   -0.0000
    12 N1     *pz        0.3509   -0.0000   -0.0000   -0.0000   -0.0000   -0.3424    0.0249   -0.0449    0.0000   -0.0000
    13 N1     *pz       -1.0073    0.0000    0.0000    0.0000    0.0000    1.0130   -0.0782    0.1401   -0.0029    0.0000
    14 N1     *d2-       0.0000    0.0000    0.0000   -0.0000   -0.0000   -0.0000   -0.0000   -0.0000   -0.0000   -0.0000
    15 N1     *d2-      -0.0000    0.0000    0.0000   -0.0000   -0.0000   -0.0000    0.0000    0.0000    0.0000    0.0000
    16 N1     *d1-      -0.0000   -0.0001   -0.0000   -0.0000    0.0001   -0.0000    0.0000    0.0000    0.0000   -0.0000
    17 N1     *d1-       0.0000   -0.0000   -0.0000   -0.0000    0.0004    0.0000   -0.0000   -0.0000   -0.0000    0.0000
    18 N1     *d0        0.0002   -0.0000    0.0000   -0.0000    0.0000    0.0001   -0.0000    0.0001   -0.0134   -0.0000
    19 N1     *d0       -0.0014    0.0000   -0.0000    0.0000   -0.0000   -0.0019    0.0009   -0.0011    0.7135    0.0000
    20 N1     *d1+      -0.0000    0.0000   -0.0001    0.0001    0.0000   -0.0000    0.0000    0.0000    0.0000    0.0134
    21 N1     *d1+       0.0000    0.0000   -0.0000    0.0004    0.0000    0.0000   -0.0000   -0.0000   -0.0000   -0.7133
    22 N1     *d2+      -0.0000   -0.0000    0.0000   -0.0000    0.0000   -0.0000    0.0000    0.0000   -0.0000   -0.0000
    23 N1     *d2+       0.0000   -0.0000    0.0000   -0.0000    0.0000    0.0000   -0.0000   -0.0000    0.0001    0.0000
    24 N1     *f3-       0.0000    0.0000    0.0000    0.0000   -0.0000    0.0000   -0.0000    0.0000   -0.0000    0.0000
    25 N1     *f2-       0.0000    0.0000    0.0000   -0.0000   -0.0000   -0.0000    0.0000    0.0000    0.0000    0.0000
    26 N1     *f1-      -0.0000   -0.0000   -0.0000   -0.0000    0.0000    0.0000   -0.0000    0.0000   -0.0000    0.0000
    27 N1     *f0       -0.0000   -0.0000   -0.0000    0.0000    0.0000   -0.0000    0.0000   -0.0000    0.0001    0.0000
    28 N1     *f1+      -0.0000    0.0000   -0.0000    0.0000    0.0000    0.0000   -0.0000    0.0000   -0.0000   -0.0001
    29 N1     *f2+      -0.0000   -0.0000    0.0000   -0.0000    0.0000    0.0000   -0.0000    0.0000    0.0000    0.0000
    30 N1     *f3+      -0.0000   -0.0000    0.0000   -0.0000   -0.0000    0.0000   -0.0000    0.0000   -0.0000    0.0000
    31 N2     1s         0.0268   -0.0000   -0.0000   -0.0000   -0.0000   -0.0483   -0.3542    0.3498    0.0004   -0.0000
    32 N2     2s         0.1286   -0.0000   -0.0000   -0.0000   -0.0000   -0.2317   -1.7184    1.6977    0.0022   -0.0000
    33 N2     *s        -0.0086    0.0000    0.0000    0.0000    0.0000    0.0146    0.0993   -0.0971   -0.0000    0.0000
    34 N2     *s        -0.1362    0.0000    0.0000    0.0000    0.0000    0.2484    1.8505   -1.8305   -0.0026    0.0000
    35 N2     2px       -0.0000    0.0000   -0.4974   -0.4980   -0.0000    0.0000   -0.0000    0.0000    0.0000    0.0020
    36 N2     *px       -0.0000    0.0000   -0.3491   -0.3481   -0.0000    0.0000   -0.0000    0.0000   -0.0000    0.0000
    37 N2     *px        0.0000   -0.0000    1.0168    1.0165    0.0000   -0.0000    0.0000   -0.0000    0.0000    0.0003
    38 N2     2py       -0.0000   -0.4975   -0.0000    0.0000   -0.4979    0.0000   -0.0000    0.0000    0.0000   -0.0000
    39 N2     *py       -0.0000   -0.3491   -0.0000    0.0000   -0.3480    0.0000    0.0000    0.0000    0.0000   -0.0000
    40 N2     *py        0.0000    1.0169    0.0000   -0.0000    1.0164   -0.0000   -0.0000   -0.0000    0.0000   -0.0000
    41 N2     2pz       -0.4945    0.0000   -0.0000    0.0000   -0.0000   -0.4970   -0.0345   -0.0676    0.0007   -0.0000
    42 N2     *pz       -0.3509    0.0000   -0.0000    0.0000   -0.0000   -0.3424   -0.0247   -0.0450   -0.0000   -0.0000
    43 N2     *pz        1.0073   -0.0000    0.0000   -0.0000    0.0000    1.0131    0.0775    0.1405    0.0028    0.0000
    44 N2     *d2-      -0.0000    0.0000   -0.0000   -0.0000    0.0000    0.0000    0.0000   -0.0000   -0.0000   -0.0000
    45 N2     *d2-       0.0000   -0.0000   -0.0000   -0.0000   -0.0000   -0.0000   -0.0000    0.0000    0.0000    0.0000
    46 N2     *d1-      -0.0000    0.0001    0.0000   -0.0000    0.0001    0.0000    0.0000   -0.0000   -0.0000    0.0000
    47 N2     *d1-       0.0000    0.0000    0.0000   -0.0000    0.0004   -0.0000   -0.0000    0.0000    0.0000   -0.0000
    48 N2     *d0        0.0002   -0.0000   -0.0000   -0.0000    0.0000   -0.0001   -0.0000   -0.0001   -0.0135    0.0000
    49 N2     *d0       -0.0014    0.0000    0.0000    0.0000    0.0000    0.0019    0.0009    0.0012    0.7145   -0.0000
    50 N2     *d1+      -0.0000   -0.0000    0.0001    0.0001    0.0000    0.0000    0.0000   -0.0000    0.0000   -0.0135
    51 N2     *d1+       0.0000   -0.0000    0.0000    0.0004    0.0000   -0.0000   -0.0000    0.0000   -0.0000    0.7147
    52 N2     *d2+       0.0000    0.0000    0.0000    0.0000    0.0000   -0.0000   -0.0000    0.0000    0.0000    0.0000
    53 N2     *d2+      -0.0000    0.0000   -0.0000   -0.0000    0.0000    0.0000    0.0000   -0.0000   -0.0001   -0.0000
    54 N2     *f3-      -0.0000   -0.0000   -0.0000    0.0000   -0.0000    0.0000    0.0000    0.0000   -0.0000    0.0000
    55 N2     *f2-       0.0000    0.0000    0.0000    0.0000    0.0000    0.0000   -0.0000    0.0000   -0.0000   -0.0000
    56 N2     *f1-       0.0000   -0.0000   -0.0000    0.0000   -0.0000    0.0000    0.0000    0.0000   -0.0000    0.0000
    57 N2     *f0        0.0000   -0.0000   -0.0000   -0.0000   -0.0000   -0.0000   -0.0000   -0.0000   -0.0001    0.0000
    58 N2     *f1+       0.0000    0.0000   -0.0000   -0.0000   -0.0000    0.0000    0.0000    0.0000    0.0000   -0.0001
    59 N2     *f2+      -0.0000   -0.0000    0.0000    0.0000   -0.0000   -0.0000   -0.0000   -0.0000    0.0000    0.0000
    60 N2     *f3+       0.0000    0.0000   -0.0000   -0.0000   -0.0000    0.0000   -0.0000    0.0000   -0.0000    0.0000


      Orbital                21        22        23        24        25        26        27        28        29        30
      Energy             0.0000    0.0000    0.0000    0.0000    0.0000    0.0000    0.0000    0.0000    0.0000    0.0000
      Occ. No.           0.0000    0.0000    0.0000    0.0000    0.0000    0.0000    0.0000    0.0000    0.0000    0.0000

     1 N1     1s        -0.0000   -0.0000    0.0000    0.0000   -0.0000   -0.0000   -0.0000    0.0003   -0.0022    0.0000
     2 N1     2s        -0.0000   -0.0000    0.0000    0.0000   -0.0000   -0.0000   -0.0000    0.0018   -0.0025    0.0000
     3 N1     *s        -0.0000    0.0000   -0.0000   -0.0000    0.0000    0.0000    0.0000    0.0000    0.0040   -0.0000
     4 N1     *s         0.0000    0.0000   -0.0000   -0.0000    0.0000   -0.0000    0.0000   -0.0023   -0.0004    0.0000
     5 N1     2px        0.0000   -0.0000   -0.0000    0.0000    0.0000   -0.0000    0.0011    0.0000   -0.0000   -2.3897
     6 N1     *px        0.0000    0.0000    0.0000    0.0000   -0.0000    0.0000   -0.0002    0.0000    0.0000    2.2139
     7 N1     *px        0.0000   -0.0000   -0.0000    0.0000    0.0000   -0.0000    0.0009    0.0000    0.0000    0.3820
     8 N1     2py        0.0020    0.0000   -0.0000   -0.0000    0.0000    0.0011    0.0000   -0.0000   -0.0000    0.0000
     9 N1     *py        0.0000   -0.0000    0.0000    0.0000    0.0000   -0.0002   -0.0000    0.0000    0.0000   -0.0000
    10 N1     *py        0.0003    0.0000   -0.0000   -0.0000    0.0000    0.0009    0.0000   -0.0000    0.0000   -0.0000
    11 N1     2pz        0.0000   -0.0000    0.0000   -0.0000    0.0000    0.0000   -0.0000    0.0005    2.4209    0.0000
    12 N1     *pz       -0.0000   -0.0000    0.0000    0.0000    0.0000    0.0000   -0.0000    0.0003   -2.2388   -0.0000
    13 N1     *pz        0.0000    0.0000    0.0000   -0.0000   -0.0000   -0.0000   -0.0000   -0.0038   -0.3931   -0.0000
    14 N1     *d2-      -0.0000   -0.0000   -0.0135    0.0000    0.0135   -0.0000   -0.0000   -0.0000    0.0000    0.0000
    15 N1     *d2-       0.0000    0.0000    0.7142   -0.0000   -0.7138    0.0000    0.0000    0.0000    0.0000   -0.0000
    16 N1     *d1-       0.0134    0.0000    0.0000    0.0000    0.0000   -0.0135   -0.0000    0.0000   -0.0000    0.0000
    17 N1     *d1-      -0.7135   -0.0000   -0.0000   -0.0000   -0.0000    0.7146    0.0000   -0.0000    0.0000   -0.0000
    18 N1     *d0        0.0000   -0.0000    0.0000   -0.0000    0.0000    0.0000   -0.0000    0.0135   -0.0000    0.0000
    19 N1     *d0       -0.0000    0.0001   -0.0000    0.0001   -0.0000   -0.0000    0.0000   -0.7145   -0.0004    0.0000
    20 N1     *d1+       0.0000    0.0000   -0.0000    0.0000   -0.0000    0.0000   -0.0135    0.0000   -0.0000   -0.0002
    21 N1     *d1+      -0.0000   -0.0000    0.0000   -0.0000    0.0000   -0.0000    0.7147   -0.0000    0.0000    0.0002
    22 N1     *d2+       0.0000   -0.0135    0.0000    0.0135   -0.0000    0.0000   -0.0000   -0.0000   -0.0000    0.0000
    23 N1     *d2+      -0.0000    0.7142   -0.0000   -0.7139    0.0000   -0.0000    0.0000    0.0001    0.0000    0.0000
    24 N1     *f3-      -0.0000   -0.0000   -0.0000    0.0000    0.0000   -0.0000   -0.0000   -0.0000    0.0000   -0.0000
    25 N1     *f2-       0.0000    0.0000    0.0001   -0.0000   -0.0001    0.0000    0.0000    0.0000   -0.0000   -0.0000
    26 N1     *f1-      -0.0001   -0.0000   -0.0000   -0.0000   -0.0000    0.0001    0.0000   -0.0000    0.0000    0.0000
    27 N1     *f0       -0.0000    0.0000   -0.0000    0.0000   -0.0000   -0.0000    0.0000   -0.0001    0.0001    0.0000
    28 N1     *f1+      -0.0000   -0.0000    0.0000   -0.0000    0.0000   -0.0000    0.0001   -0.0000    0.0000   -0.0000
    29 N1     *f2+      -0.0000    0.0001   -0.0000   -0.0001    0.0000   -0.0000    0.0000    0.0000    0.0000   -0.0000
    30 N1     *f3+       0.0000   -0.0000    0.0000    0.0000   -0.0000   -0.0000    0.0000   -0.0000   -0.0000   -0.0000
    31 N2     1s        -0.0000    0.0000   -0.0000    0.0000   -0.0000   -0.0000   -0.0000   -0.0003   -0.0022   -0.0000
    32 N2     2s        -0.0000    0.0000   -0.0000    0.0000   -0.0000   -0.0000   -0.0000   -0.0018   -0.0025   -0.0000
    33 N2     *s         0.0000   -0.0000    0.0000   -0.0000    0.0000    0.0000    0.0000   -0.0000    0.0040    0.0000
    34 N2     *s         0.0000   -0.0000    0.0000   -0.0000    0.0000    0.0000    0.0000    0.0023   -0.0004   -0.0000
    35 N2     2px        0.0000    0.0000   -0.0000    0.0000   -0.0000    0.0000   -0.0011    0.0000    0.0000   -2.4525
    36 N2     *px        0.0000   -0.0000   -0.0000   -0.0000    0.0000   -0.0000    0.0002    0.0000   -0.0000    2.2720
    37 N2     *px        0.0000    0.0000    0.0000    0.0000   -0.0000    0.0000   -0.0009   -0.0000   -0.0000    0.3920
    38 N2     2py        0.0020    0.0000    0.0000    0.0000    0.0000   -0.0011   -0.0000    0.0000    0.0000    0.0000
    39 N2     *py        0.0000    0.0000   -0.0000   -0.0000   -0.0000    0.0002    0.0000   -0.0000   -0.0000   -0.0000
    40 N2     *py        0.0003   -0.0000    0.0000    0.0000    0.0000   -0.0009   -0.0000    0.0000   -0.0000   -0.0000
    41 N2     2pz       -0.0000   -0.0000   -0.0000    0.0000    0.0000    0.0000    0.0000    0.0005   -2.4207    0.0000
    42 N2     *pz       -0.0000   -0.0000   -0.0000   -0.0000    0.0000    0.0000   -0.0000    0.0003    2.2386   -0.0000
    43 N2     *pz       -0.0000    0.0000   -0.0000    0.0000   -0.0000   -0.0000    0.0000   -0.0038    0.3930   -0.0000
    44 N2     *d2-       0.0000   -0.0000   -0.0134   -0.0000   -0.0135   -0.0000    0.0000    0.0000   -0.0000   -0.0000
    45 N2     *d2-      -0.0000    0.0000    0.7138    0.0000    0.7143    0.0000   -0.0000   -0.0000    0.0000   -0.0000
    46 N2     *d1-      -0.0135   -0.0000    0.0000    0.0000   -0.0000   -0.0135   -0.0000    0.0000   -0.0000   -0.0000
    47 N2     *d1-       0.7146    0.0000   -0.0000   -0.0000    0.0000    0.7135    0.0000   -0.0000   -0.0000    0.0000
    48 N2     *d0        0.0000    0.0000    0.0000   -0.0000   -0.0000   -0.0000   -0.0000   -0.0135   -0.0000   -0.0000
    49 N2     *d0       -0.0000   -0.0001   -0.0000    0.0001    0.0000    0.0000    0.0000    0.7135   -0.0004   -0.0000
    50 N2     *d1+      -0.0000    0.0000    0.0000   -0.0000   -0.0000    0.0000   -0.0135   -0.0000   -0.0000    0.0002
    51 N2     *d1+       0.0000   -0.0000   -0.0000    0.0000    0.0000   -0.0000    0.7134    0.0000    0.0000   -0.0002
    52 N2     *d2+       0.0000   -0.0134    0.0000   -0.0135    0.0000   -0.0000   -0.0000   -0.0000    0.0000   -0.0000
    53 N2     *d2+      -0.0000    0.7139   -0.0000    0.7142   -0.0000    0.0000    0.0000    0.0001   -0.0000    0.0000
    54 N2     *f3-      -0.0000    0.0000   -0.0000    0.0000   -0.0000    0.0000    0.0000   -0.0000   -0.0000   -0.0000
    55 N2     *f2-       0.0000   -0.0000   -0.0001   -0.0000   -0.0001   -0.0000    0.0000    0.0000   -0.0000   -0.0000
    56 N2     *f1-      -0.0001   -0.0000    0.0000    0.0000   -0.0000   -0.0001   -0.0000    0.0000   -0.0000    0.0000
    57 N2     *f0        0.0000    0.0000    0.0000   -0.0000   -0.0000   -0.0000   -0.0000   -0.0001   -0.0001    0.0000
    58 N2     *f1+      -0.0000    0.0000    0.0000   -0.0000   -0.0000    0.0000   -0.0001   -0.0000   -0.0000   -0.0000
    59 N2     *f2+       0.0000   -0.0001    0.0000   -0.0001    0.0000   -0.0000   -0.0000   -0.0000    0.0000   -0.0000
    60 N2     *f3+       0.0000   -0.0000   -0.0000   -0.0000   -0.0000    0.0000   -0.0000   -0.0000    0.0000    0.0000


      Orbital                31        32        33        34        35        36        37        38        39        40
      Energy             0.0000    0.0000    0.0000    0.0000    0.0000    0.0000    0.0000    0.0000    0.0000    0.0000
      Occ. No.           0.0000    0.0000    0.0000    0.0000    0.0000    0.0000    0.0000    0.0000    0.0000    0.0000

     1 N1     1s        -0.0000   -0.0000   -0.0000   -0.0016   -0.0000   -0.0000   -0.0000   -0.0000    0.0000    0.0000
     2 N1     2s        -0.0000   -0.0000   -0.0000   -0.0016   -0.0001   -0.0000   -0.0000   -0.0000    0.0000    0.0000
     3 N1     *s         0.0000    0.0000    0.0000    0.0034    0.0001    0.0000    0.0000    0.0000   -0.0000   -0.0000
     4 N1     *s        -0.0000   -0.0000   -0.0000   -0.0012    0.0000   -0.0000   -0.0000   -0.0000    0.0000   -0.0000
     5 N1     2px        0.0000   -0.0000    2.4525   -0.0000    0.0000   -0.0001   -0.0000    0.0000   -0.0000   -0.0000
     6 N1     *px       -0.0000    0.0000   -2.2727    0.0000   -0.0000    0.0000    0.0000    0.0000    0.0000    0.0000
     7 N1     *px       -0.0000    0.0000   -0.3910    0.0000   -0.0000   -0.0000   -0.0000    0.0000   -0.0000   -0.0000
     8 N1     2py        2.3904    2.4518    0.0000   -0.0000    0.0000    0.0000   -0.0001    0.0000   -0.0000   -0.0001
     9 N1     *py       -2.2146   -2.2721   -0.0000    0.0000   -0.0000   -0.0000    0.0000    0.0000    0.0000    0.0000
    10 N1     *py       -0.3821   -0.3909   -0.0000    0.0000   -0.0000    0.0000   -0.0000    0.0000   -0.0000   -0.0000
    11 N1     2pz       -0.0000    0.0000    0.0000   -2.4219   -0.0004   -0.0000   -0.0000   -0.0003    0.0000    0.0000
    12 N1     *pz        0.0000   -0.0000   -0.0000    2.2483    0.0003    0.0000    0.0000    0.0003   -0.0000   -0.0000
    13 N1     *pz        0.0000   -0.0000   -0.0000    0.3799   -0.0000   -0.0000   -0.0000   -0.0000    0.0000    0.0000
    14 N1     *d2-      -0.0000   -0.0000   -0.0000   -0.0000   -0.0000   -0.0000   -0.0000    0.0000    0.0008   -0.0000
    15 N1     *d2-      -0.0000   -0.0000    0.0000   -0.0000    0.0000    0.0000    0.0000   -0.0000   -0.0005    0.0000
    16 N1     *d1-       0.0002    0.0003    0.0000   -0.0000   -0.0000   -0.0000    0.0010   -0.0000   -0.0000   -0.0010
    17 N1     *d1-      -0.0002   -0.0001   -0.0000    0.0000    0.0000    0.0000   -0.0007    0.0000    0.0000    0.0006
    18 N1     *d0       -0.0000   -0.0000   -0.0000   -0.0006    0.0011   -0.0000   -0.0000   -0.0011    0.0000    0.0000
    19 N1     *d0       -0.0000   -0.0000   -0.0000   -0.0001   -0.0007    0.0000    0.0000    0.0006   -0.0000   -0.0000
    20 N1     *d1+       0.0000   -0.0000    0.0003   -0.0000   -0.0000    0.0010    0.0000   -0.0000   -0.0000   -0.0000
    21 N1     *d1+      -0.0000    0.0000   -0.0001    0.0000    0.0000   -0.0006   -0.0000    0.0000    0.0000    0.0000
    22 N1     *d2+       0.0000    0.0000   -0.0000   -0.0000    0.0000   -0.0000    0.0000   -0.0000    0.0000   -0.0000
    23 N1     *d2+      -0.0000   -0.0000   -0.0000    0.0000   -0.0000    0.0000   -0.0000    0.0000   -0.0000    0.0000
    24 N1     *f3-      -0.0000   -0.0000   -0.0000    0.0000   -0.0000   -0.0000    0.0008    0.0000   -0.0000   -0.0014
    25 N1     *f2-       0.0000    0.0000    0.0000    0.0000   -0.0000   -0.0000   -0.0000    0.0000    0.6445   -0.0000
    26 N1     *f1-       0.0000   -0.0000   -0.0000   -0.0000   -0.0000   -0.0000    0.6965   -0.0000   -0.0000   -0.7175
    27 N1     *f0       -0.0000   -0.0000   -0.0000    0.0001    0.6930   -0.0000   -0.0000   -0.7207    0.0000    0.0000
    28 N1     *f1+       0.0000    0.0000   -0.0000   -0.0000   -0.0000    0.6840    0.0000   -0.0000   -0.0000   -0.0000
    29 N1     *f2+      -0.0000   -0.0000    0.0000   -0.0000    0.0033   -0.0000    0.0000   -0.0151    0.0000   -0.0000
    30 N1     *f3+       0.0000   -0.0000    0.0000   -0.0000   -0.0000    0.0028    0.0000    0.0000    0.0000   -0.0000
    31 N2     1s        -0.0000   -0.0000   -0.0000    0.0016   -0.0000    0.0000    0.0000    0.0000   -0.0000   -0.0000
    32 N2     2s        -0.0000   -0.0000   -0.0000    0.0016   -0.0001    0.0000    0.0000    0.0000   -0.0000   -0.0000
    33 N2     *s        -0.0000    0.0000    0.0000   -0.0034    0.0001   -0.0000   -0.0000   -0.0000    0.0000    0.0000
    34 N2     *s         0.0000    0.0000    0.0000    0.0012    0.0000    0.0000    0.0000    0.0000   -0.0000   -0.0000
    35 N2     2px        0.0000    0.0000   -2.3898   -0.0000   -0.0000   -0.0001   -0.0000    0.0000    0.0000    0.0000
    36 N2     *px       -0.0000   -0.0000    2.2146    0.0000    0.0000    0.0000    0.0000    0.0000   -0.0000   -0.0000
    37 N2     *px       -0.0000   -0.0000    0.3810    0.0000    0.0000   -0.0000   -0.0000    0.0000    0.0000    0.0000
    38 N2     2py        2.4518   -2.3905   -0.0000   -0.0000   -0.0000    0.0000   -0.0001    0.0000    0.0000    0.0001
    39 N2     *py       -2.2714    2.2153    0.0000    0.0000    0.0000   -0.0000    0.0000    0.0000   -0.0000   -0.0001
    40 N2     *py       -0.3919    0.3811    0.0000    0.0000    0.0000    0.0000   -0.0000    0.0000    0.0000    0.0000
    41 N2     2pz       -0.0000   -0.0000   -0.0000   -2.4221    0.0003   -0.0000   -0.0000   -0.0003    0.0000    0.0000
    42 N2     *pz        0.0000    0.0000    0.0000    2.2485   -0.0003    0.0000    0.0000    0.0003   -0.0000   -0.0000
    43 N2     *pz        0.0000    0.0000    0.0000    0.3799    0.0000   -0.0000   -0.0000   -0.0000    0.0000    0.0000
    44 N2     *d2-       0.0000   -0.0000   -0.0000   -0.0000    0.0000    0.0000    0.0000    0.0000    0.0009   -0.0000
    45 N2     *d2-      -0.0000    0.0000   -0.0000    0.0000   -0.0000   -0.0000   -0.0000   -0.0000   -0.0006    0.0000
    46 N2     *d1-      -0.0002    0.0003    0.0000    0.0000   -0.0000    0.0000   -0.0011    0.0000   -0.0000   -0.0010
    47 N2     *d1-       0.0002   -0.0001   -0.0000   -0.0000    0.0000   -0.0000    0.0007   -0.0000    0.0000    0.0006
    48 N2     *d0        0.0000    0.0000   -0.0000    0.0006    0.0011    0.0000    0.0000    0.0011   -0.0000   -0.0000
    49 N2     *d0       -0.0000   -0.0000   -0.0000    0.0001   -0.0007   -0.0000   -0.0000   -0.0006    0.0000    0.0000
    50 N2     *d1+      -0.0000   -0.0000    0.0003    0.0000   -0.0000   -0.0011   -0.0000    0.0000   -0.0000   -0.0000
    51 N2     *d1+       0.0000    0.0000   -0.0001   -0.0000    0.0000    0.0007    0.0000   -0.0000    0.0000    0.0000
    52 N2     *d2+      -0.0000    0.0000   -0.0000   -0.0000   -0.0000    0.0000   -0.0000   -0.0000    0.0000   -0.0000
    53 N2     *d2+      -0.0000    0.0000    0.0000    0.0000    0.0000   -0.0000    0.0000    0.0000   -0.0000    0.0000
    54 N2     *f3-      -0.0000    0.0000    0.0000    0.0000   -0.0000    0.0000   -0.0006   -0.0000    0.0000   -0.0009
    55 N2     *f2-       0.0000   -0.0000   -0.0000   -0.0000   -0.0000   -0.0000   -0.0000   -0.0000   -0.7646    0.0000
    56 N2     *f1-       0.0000    0.0000    0.0000   -0.0000    0.0000   -0.0000    0.7175   -0.0000    0.0000    0.6965
    57 N2     *f0       -0.0000    0.0000    0.0000    0.0001   -0.7209   -0.0000   -0.0000   -0.6929    0.0000    0.0000
    58 N2     *f1+       0.0000   -0.0000    0.0000   -0.0000    0.0000    0.7294    0.0000   -0.0000    0.0000    0.0000
    59 N2     *f2+      -0.0000    0.0000   -0.0000    0.0000    0.0036   -0.0000    0.0000    0.0155   -0.0000    0.0000
    60 N2     *f3+      -0.0000   -0.0000    0.0000    0.0000   -0.0000   -0.0012   -0.0000   -0.0000   -0.0000   -0.0000


      Orbital                41        42        43        44        45        46        47        48        49        50
      Energy             0.0000    0.0000    0.0000    0.0000    0.0000    0.0000    0.0000    0.0000    0.0000    0.0000
      Occ. No.           0.0000    0.0000    0.0000    0.0000    0.0000    0.0000    0.0000    0.0000    0.0000    0.0000

     1 N1     1s         0.0000    0.0000   -0.0000    0.0000    0.0000    0.0000    0.0000   -0.0000   -0.0000    0.0000
     2 N1     2s         0.0000    0.0000   -0.0000    0.0000    0.0000    0.0000    0.0000   -0.0000   -0.0000    0.0000
     3 N1     *s        -0.0000   -0.0000    0.0000   -0.0000   -0.0000   -0.0000   -0.0000    0.0000    0.0000   -0.0000
     4 N1     *s         0.0000    0.0000    0.0000   -0.0000   -0.0000   -0.0000    0.0000   -0.0000    0.0000   -0.0000
     5 N1     2px        0.0001   -0.0000   -0.0000   -0.0000   -0.0000   -0.0000   -0.0000   -0.0000    0.0001   -0.0000
     6 N1     *px       -0.0000    0.0000    0.0000    0.0000    0.0000    0.0000    0.0000    0.0000   -0.0000    0.0000
     7 N1     *px        0.0000   -0.0000    0.0000    0.0000    0.0000    0.0000    0.0000    0.0000   -0.0001    0.0000
     8 N1     2py       -0.0000    0.0000   -0.0000    0.0000    0.0000   -0.0000   -0.0000    0.0000   -0.0000   -0.0001
     9 N1     *py        0.0000   -0.0000    0.0000   -0.0000   -0.0000    0.0000    0.0000   -0.0000    0.0000    0.0000
    10 N1     *py       -0.0000    0.0000    0.0000   -0.0000   -0.0000    0.0000    0.0000   -0.0000    0.0000    0.0001
    11 N1     2pz        0.0000    0.0000   -0.0000    0.0000    0.0000    0.0000    0.0000   -0.0000   -0.0000    0.0000
    12 N1     *pz       -0.0000   -0.0000    0.0000   -0.0000   -0.0000   -0.0000   -0.0000    0.0000    0.0000   -0.0000
    13 N1     *pz        0.0000    0.0000   -0.0000    0.0000    0.0000    0.0000    0.0000   -0.0000   -0.0000    0.0000
    14 N1     *d2-       0.0000   -0.0000    0.0009    0.0000    0.0000   -0.0000   -0.0000   -0.0000    0.0000   -0.0000
    15 N1     *d2-      -0.0000    0.0000   -0.0005   -0.0000   -0.0000    0.0000    0.0000    0.0000   -0.0000    0.0000
    16 N1     *d1-      -0.0000    0.0000    0.0000   -0.0000   -0.0000    0.0000    0.0000   -0.0000    0.0000    0.2371
    17 N1     *d1-       0.0000   -0.0000   -0.0000    0.0000    0.0000   -0.0000   -0.0000    0.0000   -0.0000   -0.1201
    18 N1     *d0        0.0000    0.0000    0.0000   -0.0000   -0.0000   -0.0000    0.0000   -0.0000   -0.0000    0.0000
    19 N1     *d0       -0.0000   -0.0000   -0.0000    0.0000    0.0000    0.0000   -0.0000    0.0000    0.0000   -0.0000
    20 N1     *d1+       0.0011   -0.0000    0.0000    0.0000   -0.0000   -0.0000   -0.0000   -0.0000   -0.2146    0.0000
    21 N1     *d1+      -0.0006    0.0000   -0.0000   -0.0000    0.0000    0.0000    0.0000    0.0000    0.1087   -0.0000
    22 N1     *d2+      -0.0000   -0.0008   -0.0000    0.0008    0.0000    0.0000   -0.0000    0.0000    0.0000    0.0000
    23 N1     *d2+       0.0000    0.0005    0.0000   -0.0005   -0.0000   -0.0000    0.0000   -0.0000   -0.0000   -0.0000
    24 N1     *f3-      -0.0000    0.0000   -0.0000   -0.0000    0.7375   -0.0000   -0.6753    0.0000   -0.0000    0.0000
    25 N1     *f2-       0.0000   -0.0000    0.7646    0.0000    0.0000   -0.0000   -0.0000   -0.0000   -0.0000    0.0000
    26 N1     *f1-      -0.0000    0.0000    0.0000   -0.0000   -0.0013    0.0000    0.0009   -0.0000   -0.0000   -0.0003
    27 N1     *f0        0.0000    0.0153    0.0000   -0.0038   -0.0000   -0.0000    0.0000   -0.0000    0.0000   -0.0000
    28 N1     *f1+       0.7294   -0.0000    0.0000    0.0000   -0.0000   -0.0045   -0.0000   -0.0031    0.0002   -0.0000
    29 N1     *f2+      -0.0000   -0.6778   -0.0000    0.7351    0.0000    0.0000   -0.0000    0.0000   -0.0000   -0.0000
    30 N1     *f3+       0.0048    0.0000    0.0000   -0.0000    0.0000    0.7374    0.0000    0.6754    0.0000    0.0000
    31 N2     1s        -0.0000   -0.0000   -0.0000    0.0000    0.0000    0.0000   -0.0000    0.0000    0.0000   -0.0000
    32 N2     2s        -0.0000   -0.0000   -0.0000    0.0000    0.0000    0.0000   -0.0000    0.0000    0.0000   -0.0000
    33 N2     *s         0.0000    0.0000    0.0000   -0.0000   -0.0000   -0.0000    0.0000   -0.0000   -0.0000    0.0000
    34 N2     *s         0.0000   -0.0000    0.0000   -0.0000   -0.0000   -0.0000    0.0000    0.0000   -0.0000    0.0000
    35 N2     2px       -0.0001    0.0000   -0.0000   -0.0000    0.0000    0.0000    0.0000    0.0000    0.0012   -0.0000
    36 N2     *px        0.0001   -0.0000    0.0000    0.0000   -0.0000   -0.0000    0.0000    0.0000   -0.0009    0.0000
    37 N2     *px       -0.0000    0.0000   -0.0000   -0.0000    0.0000    0.0000    0.0000    0.0000   -0.0003    0.0000
    38 N2     2py        0.0000   -0.0000   -0.0000    0.0000    0.0000   -0.0000    0.0000   -0.0000   -0.0000   -0.0012
    39 N2     *py       -0.0000    0.0000    0.0000   -0.0000   -0.0000    0.0000   -0.0000    0.0000    0.0000    0.0009
    40 N2     *py        0.0000   -0.0000   -0.0000    0.0000   -0.0000    0.0000   -0.0000    0.0000    0.0000    0.0003
    41 N2     2pz        0.0000    0.0000    0.0000   -0.0000   -0.0000   -0.0000    0.0000   -0.0000   -0.0000    0.0000
    42 N2     *pz       -0.0000   -0.0000   -0.0000    0.0000    0.0000    0.0000   -0.0000    0.0000    0.0000   -0.0000
    43 N2     *pz        0.0000    0.0000    0.0000   -0.0000   -0.0000   -0.0000    0.0000   -0.0000    0.0000   -0.0000
    44 N2     *d2-       0.0000    0.0000   -0.0007   -0.0000   -0.0000    0.0000   -0.0000   -0.0000   -0.0000    0.0000
    45 N2     *d2-      -0.0000   -0.0000    0.0004    0.0000    0.0000   -0.0000    0.0000    0.0000    0.0000   -0.0000
    46 N2     *d1-      -0.0000    0.0000   -0.0000    0.0000   -0.0000    0.0000   -0.0000    0.0000   -0.0000   -1.1466
    47 N2     *d1-       0.0000   -0.0000    0.0000   -0.0000    0.0000   -0.0000    0.0000   -0.0000    0.0000    0.5807
    48 N2     *d0       -0.0000   -0.0000    0.0000   -0.0000   -0.0000   -0.0000   -0.0000    0.0000   -0.0000    0.0000
    49 N2     *d0        0.0000    0.0000   -0.0000    0.0000    0.0000    0.0000    0.0000   -0.0000    0.0000   -0.0000
    50 N2     *d1+       0.0010   -0.0000    0.0000   -0.0000   -0.0000   -0.0000    0.0000    0.0000    1.1510   -0.0000
    51 N2     *d1+      -0.0006    0.0000    0.0000    0.0000    0.0000    0.0000   -0.0000   -0.0000   -0.5829    0.0000
    52 N2     *d2+      -0.0000   -0.0009   -0.0000   -0.0008   -0.0000   -0.0000   -0.0000    0.0000   -0.0000   -0.0000
    53 N2     *d2+       0.0000    0.0005    0.0000    0.0005    0.0000    0.0000    0.0000   -0.0000    0.0000    0.0000
    54 N2     *f3-      -0.0000   -0.0000   -0.0000   -0.0000    0.6753   -0.0000    0.7375   -0.0000    0.0000    0.0000
    55 N2     *f2-      -0.0000   -0.0000    0.6445    0.0000    0.0000   -0.0000    0.0000    0.0000   -0.0000    0.0000
    56 N2     *f1-       0.0000   -0.0000    0.0000   -0.0000    0.0010   -0.0000    0.0005   -0.0000   -0.0000   -0.0012
    57 N2     *f0        0.0000    0.0153   -0.0000    0.0031    0.0000    0.0000    0.0000   -0.0000   -0.0000    0.0000
    58 N2     *f1+      -0.6840    0.0000   -0.0000    0.0000    0.0000    0.0026   -0.0000   -0.0010    0.0012   -0.0000
    59 N2     *f2+       0.0000    0.7350    0.0000    0.6779    0.0000    0.0000    0.0000   -0.0000   -0.0000   -0.0000
    60 N2     *f3+       0.0022   -0.0000    0.0000   -0.0000    0.0000    0.6754   -0.0000   -0.7375    0.0000    0.0000


      Orbital                51        52        53        54        55        56        57        58        59        60
      Energy             0.0000    0.0000    0.0000    0.0000    0.0000    0.0000    0.0000    0.0000    0.0000    0.0000
      Occ. No.           0.0000    0.0000    0.0000    0.0000    0.0000    0.0000    0.0000    0.0000    0.0000    0.0000

     1 N1     1s         0.0007    0.0000    0.0000   -0.0000    0.0000    0.0000   -0.0002    0.0000    1.5908   -1.6876
     2 N1     2s         0.0014    0.0000    0.0000   -0.0000    0.0000    0.0000   -0.0003    0.0000    3.4661   -3.6786
     3 N1     *s        -0.0011   -0.0000   -0.0000    0.0000   -0.0000   -0.0000    0.0003   -0.0000   -2.2563    2.3929
     4 N1     *s        -0.0008   -0.0000   -0.0000    0.0000   -0.0000   -0.0000    0.0002   -0.0000   -2.1738    2.3086
     5 N1     2px        0.0000   -0.0000   -0.0013    0.0000    0.0000   -0.0000   -0.0000   -0.0000   -0.0000    0.0000
     6 N1     *px       -0.0000    0.0000    0.0010   -0.0000   -0.0000    0.0000    0.0000    0.0000    0.0000   -0.0000
     7 N1     *px       -0.0000    0.0000    0.0003   -0.0000   -0.0000    0.0000    0.0000    0.0000    0.0000   -0.0000
     8 N1     2py        0.0000   -0.0013    0.0000   -0.0000    0.0000   -0.0000   -0.0000    0.0000   -0.0000    0.0000
     9 N1     *py       -0.0000    0.0010   -0.0000    0.0000   -0.0000    0.0000    0.0000   -0.0000    0.0000   -0.0000
    10 N1     *py       -0.0000    0.0003   -0.0000    0.0000   -0.0000    0.0000    0.0000   -0.0000    0.0000   -0.0000
    11 N1     2pz        0.0015    0.0000    0.0000   -0.0000    0.0000    0.0000   -0.0016    0.0000    0.0063    0.0055
    12 N1     *pz       -0.0018   -0.0000   -0.0000    0.0000   -0.0000   -0.0000    0.0013   -0.0000   -0.0075   -0.0067
    13 N1     *pz        0.0004    0.0000    0.0000   -0.0000    0.0000   -0.0000    0.0003   -0.0000    0.0017    0.0019
    14 N1     *d2-      -0.0000   -0.0000   -0.0000   -0.0000   -0.1222    1.1644    0.0000   -0.0000    0.0000   -0.0000
    15 N1     *d2-       0.0000    0.0000    0.0000    0.0000    0.0619   -0.5897   -0.0000    0.0000   -0.0000    0.0000
    16 N1     *d1-      -0.0000    1.1466   -0.0000    0.0000   -0.0000    0.0000    0.0000   -0.0000   -0.0000    0.0000
    17 N1     *d1-       0.0000   -0.5807    0.0000   -0.0000    0.0000   -0.0000   -0.0000    0.0000    0.0000   -0.0000
    18 N1     *d0        0.1096   -0.0000   -0.0000   -0.0043    0.0000   -0.0000    1.1657   -0.0056   -0.0003   -0.0003
    19 N1     *d0       -0.0555    0.0000    0.0000    0.0022   -0.0000    0.0000   -0.5903    0.0029    0.0002    0.0003
    20 N1     *d1+      -0.0000    0.0000    1.1510   -0.0000   -0.0000    0.0000    0.0000    0.0000   -0.0000    0.0000
    21 N1     *d1+       0.0000   -0.0000   -0.5829    0.0000    0.0000   -0.0000   -0.0000   -0.0000    0.0000   -0.0000
    22 N1     *d2+       0.0002    0.0000   -0.0000   -0.0148    0.0000   -0.0000    0.0056    1.1707   -0.0000    0.0000
    23 N1     *d2+      -0.0001   -0.0000    0.0000    0.0075   -0.0000    0.0000   -0.0028   -0.5929    0.0000   -0.0000
    24 N1     *f3-      -0.0000    0.0000    0.0000   -0.0000   -0.0000    0.0000    0.0000    0.0000   -0.0000   -0.0000
    25 N1     *f2-       0.0000    0.0000    0.0000    0.0000    0.0001   -0.0010   -0.0000    0.0000    0.0000    0.0000
    26 N1     *f1-       0.0000   -0.0012    0.0000   -0.0000    0.0000   -0.0000   -0.0000    0.0000   -0.0000   -0.0000
    27 N1     *f0       -0.0001    0.0000    0.0000    0.0000   -0.0000    0.0000   -0.0013    0.0000    0.0000    0.0000
    28 N1     *f1+       0.0000   -0.0000   -0.0012    0.0000    0.0000   -0.0000   -0.0000   -0.0000   -0.0000   -0.0000
    29 N1     *f2+      -0.0000   -0.0000    0.0000    0.0000   -0.0000    0.0000   -0.0000   -0.0010   -0.0000    0.0000
    30 N1     *f3+       0.0000    0.0000   -0.0000   -0.0000    0.0000   -0.0000    0.0000    0.0000   -0.0000    0.0000
    31 N2     1s        -0.0001   -0.0000   -0.0000   -0.0000    0.0000   -0.0000    0.0007   -0.0000    1.6863    1.5922
    32 N2     2s        -0.0001   -0.0000   -0.0000   -0.0000    0.0000   -0.0000    0.0015   -0.0000    3.6742    3.4707
    33 N2     *s         0.0001    0.0000    0.0000    0.0000   -0.0000    0.0000   -0.0011    0.0000   -2.3917   -2.2576
    34 N2     *s         0.0001    0.0000    0.0000    0.0000   -0.0000    0.0000   -0.0008    0.0000   -2.3044   -2.1782
    35 N2     2px        0.0000    0.0000    0.0004   -0.0000   -0.0000    0.0000    0.0000    0.0000   -0.0000   -0.0000
    36 N2     *px       -0.0000   -0.0000   -0.0003    0.0000    0.0000   -0.0000   -0.0000   -0.0000    0.0000    0.0000
    37 N2     *px       -0.0000   -0.0000   -0.0000    0.0000    0.0000    0.0000    0.0000    0.0000    0.0000    0.0000
    38 N2     2py        0.0000    0.0004   -0.0000    0.0000   -0.0000    0.0000    0.0000   -0.0000    0.0000    0.0000
    39 N2     *py       -0.0000   -0.0004    0.0000   -0.0000    0.0000   -0.0000   -0.0000    0.0000   -0.0000   -0.0000
    40 N2     *py       -0.0000   -0.0000    0.0000   -0.0000    0.0000    0.0000    0.0000   -0.0000   -0.0000   -0.0000
    41 N2     2pz        0.0013    0.0000    0.0000   -0.0000    0.0000    0.0000   -0.0018    0.0000   -0.0060    0.0058
    42 N2     *pz       -0.0009   -0.0000   -0.0000    0.0000   -0.0000   -0.0000    0.0020   -0.0000    0.0071   -0.0071
    43 N2     *pz       -0.0004   -0.0000   -0.0000    0.0000   -0.0000    0.0000   -0.0003    0.0000   -0.0016    0.0020
    44 N2     *d2-       0.0000   -0.0000   -0.0000   -0.0000   -1.1644   -0.1222   -0.0000   -0.0000   -0.0000   -0.0000
    45 N2     *d2-      -0.0000    0.0000    0.0000    0.0000    0.5897    0.0619    0.0000    0.0000    0.0000    0.0000
    46 N2     *d1-       0.0000    0.2371   -0.0000    0.0000   -0.0000   -0.0000    0.0000   -0.0000   -0.0000   -0.0000
    47 N2     *d1-      -0.0000   -0.1201    0.0000   -0.0000    0.0000    0.0000   -0.0000    0.0000    0.0000    0.0000
    48 N2     *d0        1.1656    0.0000    0.0000   -0.0137    0.0000    0.0000   -0.1097    0.0002   -0.0003    0.0004
    49 N2     *d0       -0.5903   -0.0000   -0.0000    0.0069   -0.0000   -0.0000    0.0555   -0.0001    0.0002   -0.0003
    50 N2     *d1+       0.0000    0.0000    0.2146   -0.0000   -0.0000    0.0000   -0.0000    0.0000   -0.0000   -0.0000
    51 N2     *d1+      -0.0000   -0.0000   -0.1087    0.0000    0.0000   -0.0000    0.0000   -0.0000    0.0000    0.0000
    52 N2     *d2+      -0.0140    0.0000   -0.0000   -1.1707    0.0000    0.0000   -0.0031   -0.0148    0.0000    0.0000
    53 N2     *d2+       0.0071   -0.0000    0.0000    0.5929   -0.0000   -0.0000    0.0016    0.0075   -0.0000   -0.0000
    54 N2     *f3-      -0.0000    0.0000   -0.0000    0.0000    0.0000    0.0000    0.0000    0.0000   -0.0000   -0.0000
    55 N2     *f2-       0.0000   -0.0000   -0.0000   -0.0000   -0.0010   -0.0001   -0.0000   -0.0000   -0.0000   -0.0000
    56 N2     *f1-       0.0000    0.0002   -0.0000    0.0000   -0.0000   -0.0000    0.0000   -0.0000    0.0000   -0.0000
    57 N2     *f0        0.0013    0.0000    0.0000   -0.0000    0.0000    0.0000   -0.0001    0.0000   -0.0000    0.0000
    58 N2     *f1+       0.0000    0.0000    0.0002   -0.0000   -0.0000    0.0000   -0.0000    0.0000    0.0000   -0.0000
    59 N2     *f2+      -0.0000    0.0000   -0.0000   -0.0010    0.0000    0.0000   -0.0000   -0.0000    0.0000    0.0000
    60 N2     *f3+       0.0000    0.0000   -0.0000    0.0000   -0.0000   -0.0000   -0.0000   -0.0000   -0.0000   -0.0000
--

      Von Neumann Entropy (Root   1) =  2.99999


      Mulliken population analysis for root number:  1
      -----------------------------------------------


++    Molecular charges:
      ------------------

      Mulliken charges per centre and basis function type
      ---------------------------------------------------

                N1      N2    
      1s       2.0015  2.0015
      2s       2.0643  2.0644
      2px      0.9117  0.9117
      2pz      0.9103  0.9102
      2py      0.9117  0.9117
      *s      -0.0658 -0.0659
      *px      0.0883  0.0883
      *pz      0.0897  0.0897
      *py      0.0883  0.0883
      *d2+     0.0000  0.0000
      *d1+     0.0000  0.0000
      *d0      0.0000  0.0000
      *d1-     0.0000  0.0000
      *d2-     0.0000  0.0000
      *f3+     0.0000  0.0000
      *f2+     0.0000  0.0000
      *f1+     0.0000  0.0000
      *f0      0.0000  0.0000
      *f1-     0.0000  0.0000
      *f2-     0.0000  0.0000
      *f3-     0.0000  0.0000
      Total    7.0000  7.0000

      N-E      0.0000 -0.0000

      Total electronic charge=   14.000000

      Total            charge=   -0.000000
--



      Expectation values of various properties for root number:  1
      -----------------------------------------------------------

      Properties not supported for DMRGSCF 

++    Molecular properties:
      ---------------------

      Charge (e):
                      =   -0.0000
      Dipole Moment (Debye):
      Origin of the operator (Ang)=    0.0000    0.0000    0.0000
                   X= -1.5366E-09               Y= -3.2549E-07               Z= -2.9503E-07           Total=  4.3931E-07
      Quadrupole Moment (Debye*Ang):
      Origin of the operator (Ang)=    0.0000    0.0000    2.5000
                  XX= -1.2102E+01              XY= -1.4037E-12              XZ=  5.0386E-09              YY= -1.2102E+01
                  YZ= -1.4876E-06              ZZ= -1.2017E+01
      In traceless form (Debye*Ang)
                  XX= -4.2261E-02              XY= -2.1056E-12              XZ=  7.5579E-09              YY= -4.2260E-02
                  YZ= -2.2314E-06              ZZ=  8.4521E-02
--


      Input file to MOLDEN was generated!

      Average orbitals are written to the RASORB file
      Natural orbitals for root   1 are written to the RASORB.1 file
      Spin density orbitals for root   1 are written to the SPDORB.1 file

--- Stop Module: dmrgscf at Tue Apr  9 00:43:44 2024 /rc=_RC_ALL_IS_WELL_ ---
*** files: n2.GssOrb n2.guessorb.h5 n2.rasscf.molden n2.guessorb.molden n2.scf.molden n2.RasOrb n2.RasOrb.1 n2.dmrgscf.h5 n2.ScfOrb n2.scf.h5 n2.SpdOrb.1 xmldump
    saved to directory /public/home/xzzeng/work/HQC/N2/cc-pvtz/NO/PES/entropy/5.0/results/work_dir/n2/dmrg
--- Module dmrgscf spent 5 seconds ---

.##################.
.# Happy landing! #.
.##################.

    Timing: Wall=5.75 User=3.25 System=0.21
